Program Version,EnergyPlus, Version 9.0.1-bb7ca4f0da, YMD=2024.07.08 16:53
1,5,Environment Title[],Latitude[deg],Longitude[deg],Time Zone[],Elevation[m]
2,8,Day of Simulation[],Month[],Day of Month[],DST Indicator[1=yes 0=no],Hour[],StartMinute[],EndMinute[],DayType
3,5,Cumulative Day of Simulation[],Month[],Day of Month[],DST Indicator[1=yes 0=no],DayType  ! When Daily Meters Requested
4,2,Cumulative Days of Simulation[],Month[]  ! When Monthly Meters Requested
5,1,Cumulative Days of Simulation[] ! When Run Period Meters Requested
6,1,Calendar Year of Simulation[] ! When Annual Meters Requested
10,1,Electricity:Facility [J] !Hourly
872,1,ElectricityNet:Facility [J] !Hourly
1067,1,Gas:Facility [J] !Hourly
End of Data Dictionary
1,RUNPERIOD 1,  47.47,-122.32,  -8.00, 122.00
2,1, 1, 1, 0, 1, 0.00,60.00,Holiday
10,10792141.567902055
872,10792141.567902055
1067,0.0
2,1, 1, 1, 0, 2, 0.00,60.00,Holiday
10,11148213.974953188
872,11148213.974953188
1067,0.0
2,1, 1, 1, 0, 3, 0.00,60.00,Holiday
10,11063026.729087469
872,11063026.729087469
1067,0.0
2,1, 1, 1, 0, 4, 0.00,60.00,Holiday
10,10846385.80781072
872,10846385.80781072
1067,0.0
2,1, 1, 1, 0, 5, 0.00,60.00,Holiday
10,10985810.708132748
872,10985810.708132748
1067,0.0
2,1, 1, 1, 0, 6, 0.00,60.00,Holiday
10,10786424.751831402
872,10786424.751831402
1067,0.0
2,1, 1, 1, 0, 7, 0.00,60.00,Holiday
10,11702900.092087472
872,11702900.092087472
1067,0.0
2,1, 1, 1, 0, 8, 0.00,60.00,Holiday
10,11783392.19842098
872,11783392.198420978
1067,0.0
2,1, 1, 1, 0, 9, 0.00,60.00,Holiday
10,8389204.262032677
872,8389204.262032677
1067,0.0
2,1, 1, 1, 0,10, 0.00,60.00,Holiday
10,7940014.999246269
872,7940014.999246268
1067,0.0
2,1, 1, 1, 0,11, 0.00,60.00,Holiday
10,7136811.436265161
872,7136811.43626516
1067,0.0
2,1, 1, 1, 0,12, 0.00,60.00,Holiday
10,6953769.23890112
872,6953769.23890112
1067,0.0
2,1, 1, 1, 0,13, 0.00,60.00,Holiday
10,7272495.368297309
872,7272495.368297309
1067,0.0
2,1, 1, 1, 0,14, 0.00,60.00,Holiday
10,7615565.435964592
872,7615565.435964591
1067,0.0
2,1, 1, 1, 0,15, 0.00,60.00,Holiday
10,7598708.65389004
872,7598708.653890039
1067,0.0
2,1, 1, 1, 0,16, 0.00,60.00,Holiday
10,7806825.3557653049
872,7806825.355765304
1067,0.0
2,1, 1, 1, 0,17, 0.00,60.00,Holiday
10,10238226.682678739
872,10238226.682678739
1067,0.0
2,1, 1, 1, 0,18, 0.00,60.00,Holiday
10,11793844.66421623
872,11793844.66421623
1067,0.0
2,1, 1, 1, 0,19, 0.00,60.00,Holiday
10,11517712.498029519
872,11517712.498029519
1067,0.0
2,1, 1, 1, 0,20, 0.00,60.00,Holiday
10,11723401.346456552
872,11723401.34645655
1067,0.0
2,1, 1, 1, 0,21, 0.00,60.00,Holiday
10,11976119.78758381
872,11976119.78758381
1067,0.0
2,1, 1, 1, 0,22, 0.00,60.00,Holiday
10,11939400.72294881
872,11939400.72294881
1067,0.0
2,1, 1, 1, 0,23, 0.00,60.00,Holiday
10,12168671.674519659
872,12168671.674519659
1067,0.0
2,1, 1, 1, 0,24, 0.00,60.00,Holiday
10,12084082.495104062
872,12084082.495104062
1067,0.0
2,2, 1, 2, 0, 1, 0.00,60.00,Monday
10,13244379.754411338
872,13244379.754411338
1067,0.0
2,2, 1, 2, 0, 2, 0.00,60.00,Monday
10,13247765.630667838
872,13247765.630667838
1067,0.0
2,2, 1, 2, 0, 3, 0.00,60.00,Monday
10,13165201.390597323
872,13165201.390597323
1067,0.0
2,2, 1, 2, 0, 4, 0.00,60.00,Monday
10,13121073.958972864
872,13121073.958972864
1067,0.0
2,2, 1, 2, 0, 5, 0.00,60.00,Monday
10,12948520.377437104
872,12948520.377437104
1067,0.0
2,2, 1, 2, 0, 6, 0.00,60.00,Monday
10,13722087.544939904
872,13722087.544939898
1067,0.0
2,2, 1, 2, 0, 7, 0.00,60.00,Monday
10,43134244.79535368
872,43134244.79535368
1067,0.0
2,2, 1, 2, 0, 8, 0.00,60.00,Monday
10,44360398.168763238
872,44360398.168763238
1067,0.0
2,2, 1, 2, 0, 9, 0.00,60.00,Monday
10,47544323.0670602
872,47544323.06706021
1067,0.0
2,2, 1, 2, 0,10, 0.00,60.00,Monday
10,44799637.557614069
872,44799637.557614069
1067,0.0
2,2, 1, 2, 0,11, 0.00,60.00,Monday
10,42208790.78603401
872,42208790.78603401
1067,0.0
2,2, 1, 2, 0,12, 0.00,60.00,Monday
10,39694029.443926509
872,39694029.4439265
1067,0.0
2,2, 1, 2, 0,13, 0.00,60.00,Monday
10,40017012.396030988
872,40017012.396030988
1067,0.0
2,2, 1, 2, 0,14, 0.00,60.00,Monday
10,38935660.06330005
872,38935660.06330005
1067,0.0
2,2, 1, 2, 0,15, 0.00,60.00,Monday
10,38510152.84107625
872,38510152.84107625
1067,0.0
2,2, 1, 2, 0,16, 0.00,60.00,Monday
10,38094540.82390774
872,38094540.82390774
1067,0.0
2,2, 1, 2, 0,17, 0.00,60.00,Monday
10,39708745.56815148
872,39708745.56815149
1067,0.0
2,2, 1, 2, 0,18, 0.00,60.00,Monday
10,35133850.05690698
872,35133850.05690698
1067,0.0
2,2, 1, 2, 0,19, 0.00,60.00,Monday
10,29685243.53601516
872,29685243.536015158
1067,0.0
2,2, 1, 2, 0,20, 0.00,60.00,Monday
10,13031418.059538959
872,13031418.059538955
1067,0.0
2,2, 1, 2, 0,21, 0.00,60.00,Monday
10,11769894.910823154
872,11769894.910823152
1067,0.0
2,2, 1, 2, 0,22, 0.00,60.00,Monday
10,11769894.910823154
872,11769894.910823152
1067,0.0
2,2, 1, 2, 0,23, 0.00,60.00,Monday
10,10634524.076916654
872,10634524.076916654
1067,0.0
2,2, 1, 2, 0,24, 0.00,60.00,Monday
10,10305881.415921547
872,10305881.415921547
1067,0.0
2,3, 1, 3, 0, 1, 0.00,60.00,Tuesday
10,12258423.644994013
872,12258423.644994013
1067,0.0
2,3, 1, 3, 0, 2, 0.00,60.00,Tuesday
10,12258423.644994013
872,12258423.644994013
1067,0.0
2,3, 1, 3, 0, 3, 0.00,60.00,Tuesday
10,12258423.644994013
872,12258423.644994013
1067,0.0
2,3, 1, 3, 0, 4, 0.00,60.00,Tuesday
10,12258423.644994013
872,12258423.644994013
1067,0.0
2,3, 1, 3, 0, 5, 0.00,60.00,Tuesday
10,12258423.644994013
872,12258423.644994013
1067,0.0
2,3, 1, 3, 0, 6, 0.00,60.00,Tuesday
10,13070526.588477327
872,13070526.588477323
1067,0.0
2,3, 1, 3, 0, 7, 0.00,60.00,Tuesday
10,33416493.486710408
872,33416493.486710408
1067,0.0
2,3, 1, 3, 0, 8, 0.00,60.00,Tuesday
10,36224380.56469027
872,36224380.56469027
1067,0.0
2,3, 1, 3, 0, 9, 0.00,60.00,Tuesday
10,38294302.376505959
872,38294302.376505959
1067,0.0
2,3, 1, 3, 0,10, 0.00,60.00,Tuesday
10,35996223.950001377
872,35996223.95000137
1067,0.0
2,3, 1, 3, 0,11, 0.00,60.00,Tuesday
10,33912731.677417
872,33912731.677417
1067,0.0
2,3, 1, 3, 0,12, 0.00,60.00,Tuesday
10,33596714.965481508
872,33596714.965481508
1067,0.0
2,3, 1, 3, 0,13, 0.00,60.00,Tuesday
10,33085056.081607924
872,33085056.081607924
1067,0.0
2,3, 1, 3, 0,14, 0.00,60.00,Tuesday
10,32207715.52674664
872,32207715.526746639
1067,0.0
2,3, 1, 3, 0,15, 0.00,60.00,Tuesday
10,33330881.515060918
872,33330881.51506092
1067,0.0
2,3, 1, 3, 0,16, 0.00,60.00,Tuesday
10,33275466.08145893
872,33275466.081458935
1067,0.0
2,3, 1, 3, 0,17, 0.00,60.00,Tuesday
10,35640141.829953189
872,35640141.82995319
1067,0.0
2,3, 1, 3, 0,18, 0.00,60.00,Tuesday
10,31859630.481334397
872,31859630.481334393
1067,0.0
2,3, 1, 3, 0,19, 0.00,60.00,Tuesday
10,26819652.734602177
872,26819652.73460217
1067,0.0
2,3, 1, 3, 0,20, 0.00,60.00,Tuesday
10,13031418.059538959
872,13031418.059538955
1067,0.0
2,3, 1, 3, 0,21, 0.00,60.00,Tuesday
10,11769894.910823154
872,11769894.910823152
1067,0.0
2,3, 1, 3, 0,22, 0.00,60.00,Tuesday
10,11769894.910823154
872,11769894.910823152
1067,0.0
2,3, 1, 3, 0,23, 0.00,60.00,Tuesday
10,10634524.076916654
872,10634524.076916654
1067,0.0
2,3, 1, 3, 0,24, 0.00,60.00,Tuesday
10,10305881.415921547
872,10305881.415921547
1067,0.0
2,4, 1, 4, 0, 1, 0.00,60.00,Wednesday
10,12258423.644994013
872,12258423.644994013
1067,0.0
2,4, 1, 4, 0, 2, 0.00,60.00,Wednesday
10,12258423.644994013
872,12258423.644994013
1067,0.0
2,4, 1, 4, 0, 3, 0.00,60.00,Wednesday
10,12258423.644994013
872,12258423.644994013
1067,0.0
2,4, 1, 4, 0, 4, 0.00,60.00,Wednesday
10,12258423.644994013
872,12258423.644994013
1067,0.0
2,4, 1, 4, 0, 5, 0.00,60.00,Wednesday
10,12258423.644994013
872,12258423.644994013
1067,0.0
2,4, 1, 4, 0, 6, 0.00,60.00,Wednesday
10,13070526.588477327
872,13070526.588477323
1067,0.0
2,4, 1, 4, 0, 7, 0.00,60.00,Wednesday
10,29241400.007434183
872,29241400.007434176
1067,0.0
2,4, 1, 4, 0, 8, 0.00,60.00,Wednesday
10,34018526.34333839
872,34018526.34333839
1067,0.0
2,4, 1, 4, 0, 9, 0.00,60.00,Wednesday
10,36324329.204849269
872,36324329.20484927
1067,0.0
2,4, 1, 4, 0,10, 0.00,60.00,Wednesday
10,35279792.1630677
872,35279792.163067709
1067,0.0
2,4, 1, 4, 0,11, 0.00,60.00,Wednesday
10,33956690.72805909
872,33956690.72805909
1067,0.0
2,4, 1, 4, 0,12, 0.00,60.00,Wednesday
10,32643804.581456216
872,32643804.581456216
1067,0.0
2,4, 1, 4, 0,13, 0.00,60.00,Wednesday
10,32559685.194319555
872,32559685.19431955
1067,0.0
2,4, 1, 4, 0,14, 0.00,60.00,Wednesday
10,31517819.9443341
872,31517819.9443341
1067,0.0
2,4, 1, 4, 0,15, 0.00,60.00,Wednesday
10,31518602.40211298
872,31518602.40211298
1067,0.0
2,4, 1, 4, 0,16, 0.00,60.00,Wednesday
10,31839741.51516633
872,31839741.51516633
1067,0.0
2,4, 1, 4, 0,17, 0.00,60.00,Wednesday
10,34313996.70331203
872,34313996.70331205
1067,0.0
2,4, 1, 4, 0,18, 0.00,60.00,Wednesday
10,30274356.379323085
872,30274356.379323085
1067,0.0
2,4, 1, 4, 0,19, 0.00,60.00,Wednesday
10,25774310.34070229
872,25774310.340702289
1067,0.0
2,4, 1, 4, 0,20, 0.00,60.00,Wednesday
10,13031418.059538959
872,13031418.059538955
1067,0.0
2,4, 1, 4, 0,21, 0.00,60.00,Wednesday
10,11769894.910823154
872,11769894.910823152
1067,0.0
2,4, 1, 4, 0,22, 0.00,60.00,Wednesday
10,11769894.910823154
872,11769894.910823152
1067,0.0
2,4, 1, 4, 0,23, 0.00,60.00,Wednesday
10,11084524.076916654
872,11084524.076916654
1067,0.0
2,4, 1, 4, 0,24, 0.00,60.00,Wednesday
10,11205881.415921547
872,11205881.415921547
1067,0.0
2,5, 1, 5, 0, 1, 0.00,60.00,Thursday
10,13158423.644994015
872,13158423.644994013
1067,0.0
2,5, 1, 5, 0, 2, 0.00,60.00,Thursday
10,13158423.644994015
872,13158423.644994013
1067,0.0
2,5, 1, 5, 0, 3, 0.00,60.00,Thursday
10,13158423.644994015
872,13158423.644994013
1067,0.0
2,5, 1, 5, 0, 4, 0.00,60.00,Thursday
10,13158423.644994015
872,13158423.644994013
1067,0.0
2,5, 1, 5, 0, 5, 0.00,60.00,Thursday
10,13158423.644994015
872,13158423.644994013
1067,0.0
2,5, 1, 5, 0, 6, 0.00,60.00,Thursday
10,13970526.588477327
872,13970526.588477327
1067,0.0
2,5, 1, 5, 0, 7, 0.00,60.00,Thursday
10,35601670.07198881
872,35601670.0719888
1067,6269062.046981119
2,5, 1, 5, 0, 8, 0.00,60.00,Thursday
10,43278038.42417927
872,43278038.42417927
1067,6111313.867176573
2,5, 1, 5, 0, 9, 0.00,60.00,Thursday
10,41640020.720334228
872,41640020.720334228
1067,0.0
2,5, 1, 5, 0,10, 0.00,60.00,Thursday
10,36523413.04020166
872,36523413.040201667
1067,0.0
2,5, 1, 5, 0,11, 0.00,60.00,Thursday
10,34462784.2197325
872,34462784.2197325
1067,0.0
2,5, 1, 5, 0,12, 0.00,60.00,Thursday
10,34027514.45046485
872,34027514.45046485
1067,0.0
2,5, 1, 5, 0,13, 0.00,60.00,Thursday
10,34574234.95058419
872,34574234.95058418
1067,0.0
2,5, 1, 5, 0,14, 0.00,60.00,Thursday
10,31875891.759375968
872,31875891.759375968
1067,0.0
2,5, 1, 5, 0,15, 0.00,60.00,Thursday
10,31093752.463333697
872,31093752.463333697
1067,0.0
2,5, 1, 5, 0,16, 0.00,60.00,Thursday
10,30523929.39580913
872,30523929.395809134
1067,0.0
2,5, 1, 5, 0,17, 0.00,60.00,Thursday
10,33822949.85846933
872,33822949.85846934
1067,0.0
2,5, 1, 5, 0,18, 0.00,60.00,Thursday
10,31111801.725314287
872,31111801.725314283
1067,0.0
2,5, 1, 5, 0,19, 0.00,60.00,Thursday
10,26677373.436158066
872,26677373.43615806
1067,0.0
2,5, 1, 5, 0,20, 0.00,60.00,Thursday
10,13931418.059538959
872,13931418.059538955
1067,0.0
2,5, 1, 5, 0,21, 0.00,60.00,Thursday
10,12669894.910823152
872,12669894.910823152
1067,0.0
2,5, 1, 5, 0,22, 0.00,60.00,Thursday
10,12669894.910823152
872,12669894.910823152
1067,0.0
2,5, 1, 5, 0,23, 0.00,60.00,Thursday
10,11534524.076916658
872,11534524.076916658
1067,0.0
2,5, 1, 5, 0,24, 0.00,60.00,Thursday
10,11205881.415921547
872,11205881.415921547
1067,0.0
2,6, 1, 6, 0, 1, 0.00,60.00,Friday
10,13158423.644994015
872,13158423.644994013
1067,0.0
2,6, 1, 6, 0, 2, 0.00,60.00,Friday
10,13158423.644994015
872,13158423.644994013
1067,0.0
2,6, 1, 6, 0, 3, 0.00,60.00,Friday
10,13158423.644994015
872,13158423.644994013
1067,0.0
2,6, 1, 6, 0, 4, 0.00,60.00,Friday
10,13158423.644994015
872,13158423.644994013
1067,0.0
2,6, 1, 6, 0, 5, 0.00,60.00,Friday
10,13158423.644994015
872,13158423.644994013
1067,0.0
2,6, 1, 6, 0, 6, 0.00,60.00,Friday
10,13970526.588477327
872,13970526.588477327
1067,0.0
2,6, 1, 6, 0, 7, 0.00,60.00,Friday
10,34810469.16307397
872,34810469.163073968
1067,6397994.770283537
2,6, 1, 6, 0, 8, 0.00,60.00,Friday
10,42786538.24998341
872,42786538.24998341
1067,10703332.930146143
2,6, 1, 6, 0, 9, 0.00,60.00,Friday
10,43358011.32760435
872,43358011.32760435
1067,0.0
2,6, 1, 6, 0,10, 0.00,60.00,Friday
10,39356353.59848265
872,39356353.59848265
1067,0.0
2,6, 1, 6, 0,11, 0.00,60.00,Friday
10,37719309.61300652
872,37719309.61300652
1067,0.0
2,6, 1, 6, 0,12, 0.00,60.00,Friday
10,35518766.774592008
872,35518766.774592008
1067,0.0
2,6, 1, 6, 0,13, 0.00,60.00,Friday
10,37394612.98606415
872,37394612.98606414
1067,0.0
2,6, 1, 6, 0,14, 0.00,60.00,Friday
10,32821805.800518209
872,32821805.800518209
1067,0.0
2,6, 1, 6, 0,15, 0.00,60.00,Friday
10,32347723.744611276
872,32347723.74461127
1067,0.0
2,6, 1, 6, 0,16, 0.00,60.00,Friday
10,32124159.503925776
872,32124159.503925776
1067,0.0
2,6, 1, 6, 0,17, 0.00,60.00,Friday
10,35263452.23927412
872,35263452.23927412
1067,0.0
2,6, 1, 6, 0,18, 0.00,60.00,Friday
10,37100966.31781357
872,37100966.317813578
1067,0.0
2,6, 1, 6, 0,19, 0.00,60.00,Friday
10,32596185.733689544
872,32596185.73368954
1067,0.0
2,6, 1, 6, 0,20, 0.00,60.00,Friday
10,13931418.059538959
872,13931418.059538955
1067,0.0
2,6, 1, 6, 0,21, 0.00,60.00,Friday
10,12669894.910823152
872,12669894.910823152
1067,0.0
2,6, 1, 6, 0,22, 0.00,60.00,Friday
10,12669894.910823152
872,12669894.910823152
1067,0.0
2,6, 1, 6, 0,23, 0.00,60.00,Friday
10,11534524.076916658
872,11534524.076916658
1067,0.0
2,6, 1, 6, 0,24, 0.00,60.00,Friday
10,11205881.415921547
872,11205881.415921547
1067,0.0
2,7, 1, 7, 0, 1, 0.00,60.00,Saturday
10,10093157.415921547
872,10093157.415921547
1067,0.0
2,7, 1, 7, 0, 2, 0.00,60.00,Saturday
10,10093157.415921547
872,10093157.415921547
1067,0.0
2,7, 1, 7, 0, 3, 0.00,60.00,Saturday
10,10093157.415921547
872,10093157.415921547
1067,0.0
2,7, 1, 7, 0, 4, 0.00,60.00,Saturday
10,10093157.415921547
872,10093157.415921547
1067,0.0
2,7, 1, 7, 0, 5, 0.00,60.00,Saturday
10,10093157.415921547
872,10093157.415921547
1067,0.0
2,7, 1, 7, 0, 6, 0.00,60.00,Saturday
10,10093157.415921547
872,10093157.415921547
1067,0.0
2,7, 1, 7, 0, 7, 0.00,60.00,Saturday
10,11205881.415921547
872,11205881.415921547
1067,0.0
2,7, 1, 7, 0, 8, 0.00,60.00,Saturday
10,11205881.415921547
872,11205881.415921547
1067,0.0
2,7, 1, 7, 0, 9, 0.00,60.00,Saturday
10,7825114.441311181
872,7825114.441311181
1067,0.0
2,7, 1, 7, 0,10, 0.00,60.00,Saturday
10,7606440.795774006
872,7606440.795774006
1067,0.0
2,7, 1, 7, 0,11, 0.00,60.00,Saturday
10,7557737.310532268
872,7557737.310532267
1067,0.0
2,7, 1, 7, 0,12, 0.00,60.00,Saturday
10,7524114.655724569
872,7524114.655724569
1067,0.0
2,7, 1, 7, 0,13, 0.00,60.00,Saturday
10,7563254.921628924
872,7563254.921628923
1067,0.0
2,7, 1, 7, 0,14, 0.00,60.00,Saturday
10,7574356.930239567
872,7574356.930239567
1067,0.0
2,7, 1, 7, 0,15, 0.00,60.00,Saturday
10,7625818.89215773
872,7625818.89215773
1067,0.0
2,7, 1, 7, 0,16, 0.00,60.00,Saturday
10,7645628.926839717
872,7645628.926839717
1067,0.0
2,7, 1, 7, 0,17, 0.00,60.00,Saturday
10,9794710.61030598
872,9794710.61030598
1067,0.0
2,7, 1, 7, 0,18, 0.00,60.00,Saturday
10,11205881.415921547
872,11205881.415921547
1067,0.0
2,7, 1, 7, 0,19, 0.00,60.00,Saturday
10,11205881.415921547
872,11205881.415921547
1067,0.0
2,7, 1, 7, 0,20, 0.00,60.00,Saturday
10,11205881.415921547
872,11205881.415921547
1067,0.0
2,7, 1, 7, 0,21, 0.00,60.00,Saturday
10,11205881.415921547
872,11205881.415921547
1067,0.0
2,7, 1, 7, 0,22, 0.00,60.00,Saturday
10,11205881.415921547
872,11205881.415921547
1067,0.0
2,7, 1, 7, 0,23, 0.00,60.00,Saturday
10,11205881.415921547
872,11205881.415921547
1067,0.0
2,7, 1, 7, 0,24, 0.00,60.00,Saturday
10,11205881.415921547
872,11205881.415921547
1067,0.0
2,8, 1, 8, 0, 1, 0.00,60.00,Sunday
10,10093157.415921547
872,10093157.415921547
1067,0.0
2,8, 1, 8, 0, 2, 0.00,60.00,Sunday
10,10093157.415921547
872,10093157.415921547
1067,0.0
2,8, 1, 8, 0, 3, 0.00,60.00,Sunday
10,10093157.415921547
872,10093157.415921547
1067,0.0
2,8, 1, 8, 0, 4, 0.00,60.00,Sunday
10,10093157.415921547
872,10093157.415921547
1067,0.0
2,8, 1, 8, 0, 5, 0.00,60.00,Sunday
10,10093157.415921547
872,10093157.415921547
1067,0.0
2,8, 1, 8, 0, 6, 0.00,60.00,Sunday
10,10093157.415921547
872,10093157.415921547
1067,0.0
2,8, 1, 8, 0, 7, 0.00,60.00,Sunday
10,11205881.415921547
872,11205881.415921547
1067,0.0
2,8, 1, 8, 0, 8, 0.00,60.00,Sunday
10,11205881.415921547
872,11205881.415921547
1067,0.0
2,8, 1, 8, 0, 9, 0.00,60.00,Sunday
10,7879187.702577653
872,7879187.702577653
1067,0.0
2,8, 1, 8, 0,10, 0.00,60.00,Sunday
10,7641910.338814916
872,7641910.338814916
1067,0.0
2,8, 1, 8, 0,11, 0.00,60.00,Sunday
10,7579369.753144132
872,7579369.753144132
1067,0.0
2,8, 1, 8, 0,12, 0.00,60.00,Sunday
10,7588693.106498653
872,7588693.106498651
1067,0.0
2,8, 1, 8, 0,13, 0.00,60.00,Sunday
10,7533263.239450828
872,7533263.239450828
1067,0.0
2,8, 1, 8, 0,14, 0.00,60.00,Sunday
10,6671060.419916435
872,6671060.419916435
1067,0.0
2,8, 1, 8, 0,15, 0.00,60.00,Sunday
10,6722930.899527896
872,6722930.899527895
1067,0.0
2,8, 1, 8, 0,16, 0.00,60.00,Sunday
10,6745084.589814775
872,6745084.589814775
1067,0.0
2,8, 1, 8, 0,17, 0.00,60.00,Sunday
10,9793520.457824385
872,9793520.457824385
1067,0.0
2,8, 1, 8, 0,18, 0.00,60.00,Sunday
10,11205881.415921547
872,11205881.415921547
1067,0.0
2,8, 1, 8, 0,19, 0.00,60.00,Sunday
10,11205881.415921547
872,11205881.415921547
1067,0.0
2,8, 1, 8, 0,20, 0.00,60.00,Sunday
10,11205881.415921547
872,11205881.415921547
1067,0.0
2,8, 1, 8, 0,21, 0.00,60.00,Sunday
10,11205881.415921547
872,11205881.415921547
1067,0.0
2,8, 1, 8, 0,22, 0.00,60.00,Sunday
10,11205881.415921547
872,11205881.415921547
1067,0.0
2,8, 1, 8, 0,23, 0.00,60.00,Sunday
10,11205881.415921547
872,11205881.415921547
1067,0.0
2,8, 1, 8, 0,24, 0.00,60.00,Sunday
10,11205881.415921547
872,11205881.415921547
1067,0.0
2,9, 1, 9, 0, 1, 0.00,60.00,Monday
10,13158423.644994015
872,13158423.644994013
1067,0.0
2,9, 1, 9, 0, 2, 0.00,60.00,Monday
10,13158423.644994015
872,13158423.644994013
1067,0.0
2,9, 1, 9, 0, 3, 0.00,60.00,Monday
10,13158423.644994015
872,13158423.644994013
1067,0.0
2,9, 1, 9, 0, 4, 0.00,60.00,Monday
10,13158423.644994015
872,13158423.644994013
1067,0.0
2,9, 1, 9, 0, 5, 0.00,60.00,Monday
10,13158423.644994015
872,13158423.644994013
1067,0.0
2,9, 1, 9, 0, 6, 0.00,60.00,Monday
10,13970526.588477327
872,13970526.588477327
1067,0.0
2,9, 1, 9, 0, 7, 0.00,60.00,Monday
10,36506472.61624379
872,36506472.61624379
1067,18297767.567626697
2,9, 1, 9, 0, 8, 0.00,60.00,Monday
10,43864540.510826338
872,43864540.51082634
1067,17123389.672445496
2,9, 1, 9, 0, 9, 0.00,60.00,Monday
10,46005233.8846751
872,46005233.88467511
1067,3540178.523045188
2,9, 1, 9, 0,10, 0.00,60.00,Monday
10,41235355.94159228
872,41235355.94159228
1067,829823.5519184541
2,9, 1, 9, 0,11, 0.00,60.00,Monday
10,36643703.08367064
872,36643703.08367064
1067,0.0
2,9, 1, 9, 0,12, 0.00,60.00,Monday
10,33974560.482555549
872,33974560.48255555
1067,0.0
2,9, 1, 9, 0,13, 0.00,60.00,Monday
10,32517919.82012848
872,32517919.82012848
1067,0.0
2,9, 1, 9, 0,14, 0.00,60.00,Monday
10,32506611.05178805
872,32506611.05178805
1067,0.0
2,9, 1, 9, 0,15, 0.00,60.00,Monday
10,32692754.127545567
872,32692754.12754557
1067,0.0
2,9, 1, 9, 0,16, 0.00,60.00,Monday
10,33093861.511648045
872,33093861.511648045
1067,0.0
2,9, 1, 9, 0,17, 0.00,60.00,Monday
10,35588704.30118614
872,35588704.301186148
1067,0.0
2,9, 1, 9, 0,18, 0.00,60.00,Monday
10,32216937.074427144
872,32216937.074427148
1067,0.0
2,9, 1, 9, 0,19, 0.00,60.00,Monday
10,26850042.575433975
872,26850042.575433975
1067,0.0
2,9, 1, 9, 0,20, 0.00,60.00,Monday
10,13031418.059538959
872,13031418.059538955
1067,0.0
2,9, 1, 9, 0,21, 0.00,60.00,Monday
10,11769894.910823154
872,11769894.910823152
1067,0.0
2,9, 1, 9, 0,22, 0.00,60.00,Monday
10,11769894.910823154
872,11769894.910823152
1067,0.0
2,9, 1, 9, 0,23, 0.00,60.00,Monday
10,10634524.076916654
872,10634524.076916654
1067,0.0
2,9, 1, 9, 0,24, 0.00,60.00,Monday
10,10305881.415921547
872,10305881.415921547
1067,0.0
2,10, 1,10, 0, 1, 0.00,60.00,Tuesday
10,12258423.644994013
872,12258423.644994013
1067,0.0
2,10, 1,10, 0, 2, 0.00,60.00,Tuesday
10,12258423.644994013
872,12258423.644994013
1067,0.0
2,10, 1,10, 0, 3, 0.00,60.00,Tuesday
10,12258423.644994013
872,12258423.644994013
1067,0.0
2,10, 1,10, 0, 4, 0.00,60.00,Tuesday
10,12258423.644994013
872,12258423.644994013
1067,0.0
2,10, 1,10, 0, 5, 0.00,60.00,Tuesday
10,12258423.644994013
872,12258423.644994013
1067,0.0
2,10, 1,10, 0, 6, 0.00,60.00,Tuesday
10,13070526.588477327
872,13070526.588477323
1067,0.0
2,10, 1,10, 0, 7, 0.00,60.00,Tuesday
10,29002845.692199876
872,29002845.692199876
1067,0.0
2,10, 1,10, 0, 8, 0.00,60.00,Tuesday
10,34094922.3284618
872,34094922.3284618
1067,0.0
2,10, 1,10, 0, 9, 0.00,60.00,Tuesday
10,34850143.22248013
872,34850143.22248013
1067,0.0
2,10, 1,10, 0,10, 0.00,60.00,Tuesday
10,32425934.75853127
872,32425934.75853127
1067,0.0
2,10, 1,10, 0,11, 0.00,60.00,Tuesday
10,31957064.624190108
872,31957064.624190116
1067,0.0
2,10, 1,10, 0,12, 0.00,60.00,Tuesday
10,31453437.55732232
872,31453437.55732232
1067,0.0
2,10, 1,10, 0,13, 0.00,60.00,Tuesday
10,30897838.10592591
872,30897838.10592591
1067,0.0
2,10, 1,10, 0,14, 0.00,60.00,Tuesday
10,31207061.900968039
872,31207061.900968039
1067,0.0
2,10, 1,10, 0,15, 0.00,60.00,Tuesday
10,30913436.777841715
872,30913436.777841715
1067,0.0
2,10, 1,10, 0,16, 0.00,60.00,Tuesday
10,31120721.936853883
872,31120721.936853883
1067,0.0
2,10, 1,10, 0,17, 0.00,60.00,Tuesday
10,32921146.28471594
872,32921146.28471594
1067,0.0
2,10, 1,10, 0,18, 0.00,60.00,Tuesday
10,27976470.658634277
872,27976470.658634277
1067,0.0
2,10, 1,10, 0,19, 0.00,60.00,Tuesday
10,22690960.07871716
872,22690960.07871716
1067,0.0
2,10, 1,10, 0,20, 0.00,60.00,Tuesday
10,13031418.059538959
872,13031418.059538955
1067,0.0
2,10, 1,10, 0,21, 0.00,60.00,Tuesday
10,11769894.910823154
872,11769894.910823152
1067,0.0
2,10, 1,10, 0,22, 0.00,60.00,Tuesday
10,11769894.910823154
872,11769894.910823152
1067,0.0
2,10, 1,10, 0,23, 0.00,60.00,Tuesday
10,10634524.076916654
872,10634524.076916654
1067,0.0
2,10, 1,10, 0,24, 0.00,60.00,Tuesday
10,10305881.415921547
872,10305881.415921547
1067,0.0
2,11, 1,11, 0, 1, 0.00,60.00,Wednesday
10,12258423.644994013
872,12258423.644994013
1067,0.0
2,11, 1,11, 0, 2, 0.00,60.00,Wednesday
10,12258423.644994013
872,12258423.644994013
1067,0.0
2,11, 1,11, 0, 3, 0.00,60.00,Wednesday
10,12258423.644994013
872,12258423.644994013
1067,0.0
2,11, 1,11, 0, 4, 0.00,60.00,Wednesday
10,12258423.644994013
872,12258423.644994013
1067,0.0
2,11, 1,11, 0, 5, 0.00,60.00,Wednesday
10,12258423.644994013
872,12258423.644994013
1067,0.0
2,11, 1,11, 0, 6, 0.00,60.00,Wednesday
10,13070526.588477327
872,13070526.588477323
1067,0.0
2,11, 1,11, 0, 7, 0.00,60.00,Wednesday
10,24340100.89296789
872,24340100.892967885
1067,0.0
2,11, 1,11, 0, 8, 0.00,60.00,Wednesday
10,28205857.794372798
872,28205857.794372795
1067,0.0
2,11, 1,11, 0, 9, 0.00,60.00,Wednesday
10,31908699.105658514
872,31908699.10565852
1067,0.0
2,11, 1,11, 0,10, 0.00,60.00,Wednesday
10,30203173.87982648
872,30203173.879826469
1067,0.0
2,11, 1,11, 0,11, 0.00,60.00,Wednesday
10,30228925.513291524
872,30228925.513291528
1067,0.0
2,11, 1,11, 0,12, 0.00,60.00,Wednesday
10,29706965.938735963
872,29706965.938735963
1067,0.0
2,11, 1,11, 0,13, 0.00,60.00,Wednesday
10,27894557.25630326
872,27894557.25630326
1067,0.0
2,11, 1,11, 0,14, 0.00,60.00,Wednesday
10,29542247.90910821
872,29542247.909108219
1067,0.0
2,11, 1,11, 0,15, 0.00,60.00,Wednesday
10,29858121.760463217
872,29858121.760463217
1067,0.0
2,11, 1,11, 0,16, 0.00,60.00,Wednesday
10,30927707.551642024
872,30927707.55164202
1067,0.0
2,11, 1,11, 0,17, 0.00,60.00,Wednesday
10,32708464.497398925
872,32708464.497398925
1067,0.0
2,11, 1,11, 0,18, 0.00,60.00,Wednesday
10,24937050.958620624
872,24937050.958620624
1067,0.0
2,11, 1,11, 0,19, 0.00,60.00,Wednesday
10,19614991.388621466
872,19614991.388621458
1067,0.0
2,11, 1,11, 0,20, 0.00,60.00,Wednesday
10,13031418.059538959
872,13031418.059538955
1067,0.0
2,11, 1,11, 0,21, 0.00,60.00,Wednesday
10,11769894.910823154
872,11769894.910823152
1067,0.0
2,11, 1,11, 0,22, 0.00,60.00,Wednesday
10,11769894.910823154
872,11769894.910823152
1067,0.0
2,11, 1,11, 0,23, 0.00,60.00,Wednesday
10,10634524.076916654
872,10634524.076916654
1067,0.0
2,11, 1,11, 0,24, 0.00,60.00,Wednesday
10,10305881.415921547
872,10305881.415921547
1067,0.0
2,12, 1,12, 0, 1, 0.00,60.00,Thursday
10,12258423.644994013
872,12258423.644994013
1067,0.0
2,12, 1,12, 0, 2, 0.00,60.00,Thursday
10,12258423.644994013
872,12258423.644994013
1067,0.0
2,12, 1,12, 0, 3, 0.00,60.00,Thursday
10,12258423.644994013
872,12258423.644994013
1067,0.0
2,12, 1,12, 0, 4, 0.00,60.00,Thursday
10,12258423.644994013
872,12258423.644994013
1067,0.0
2,12, 1,12, 0, 5, 0.00,60.00,Thursday
10,12258423.644994013
872,12258423.644994013
1067,0.0
2,12, 1,12, 0, 6, 0.00,60.00,Thursday
10,13070526.588477327
872,13070526.588477323
1067,0.0
2,12, 1,12, 0, 7, 0.00,60.00,Thursday
10,23664447.938256969
872,23664447.938256965
1067,0.0
2,12, 1,12, 0, 8, 0.00,60.00,Thursday
10,28392858.193831866
872,28392858.193831859
1067,0.0
2,12, 1,12, 0, 9, 0.00,60.00,Thursday
10,32201735.28057423
872,32201735.28057424
1067,0.0
2,12, 1,12, 0,10, 0.00,60.00,Thursday
10,31517045.552709089
872,31517045.552709089
1067,0.0
2,12, 1,12, 0,11, 0.00,60.00,Thursday
10,30866417.562100665
872,30866417.562100665
1067,0.0
2,12, 1,12, 0,12, 0.00,60.00,Thursday
10,30522996.354717785
872,30522996.354717789
1067,0.0
2,12, 1,12, 0,13, 0.00,60.00,Thursday
10,29543700.44390771
872,29543700.44390771
1067,0.0
2,12, 1,12, 0,14, 0.00,60.00,Thursday
10,29690696.045658165
872,29690696.045658169
1067,0.0
2,12, 1,12, 0,15, 0.00,60.00,Thursday
10,30706886.245889568
872,30706886.245889576
1067,0.0
2,12, 1,12, 0,16, 0.00,60.00,Thursday
10,30295919.855414105
872,30295919.855414105
1067,0.0
2,12, 1,12, 0,17, 0.00,60.00,Thursday
10,32681710.47204373
872,32681710.47204373
1067,0.0
2,12, 1,12, 0,18, 0.00,60.00,Thursday
10,27977059.232051344
872,27977059.232051344
1067,0.0
2,12, 1,12, 0,19, 0.00,60.00,Thursday
10,22938230.620036317
872,22938230.62003631
1067,0.0
2,12, 1,12, 0,20, 0.00,60.00,Thursday
10,13031418.059538959
872,13031418.059538955
1067,0.0
2,12, 1,12, 0,21, 0.00,60.00,Thursday
10,11769894.910823154
872,11769894.910823152
1067,0.0
2,12, 1,12, 0,22, 0.00,60.00,Thursday
10,11769894.910823154
872,11769894.910823152
1067,0.0
2,12, 1,12, 0,23, 0.00,60.00,Thursday
10,10634524.076916654
872,10634524.076916654
1067,0.0
2,12, 1,12, 0,24, 0.00,60.00,Thursday
10,10305881.415921547
872,10305881.415921547
1067,0.0
2,13, 1,13, 0, 1, 0.00,60.00,Friday
10,13158423.644994015
872,13158423.644994013
1067,0.0
2,13, 1,13, 0, 2, 0.00,60.00,Friday
10,13158423.644994015
872,13158423.644994013
1067,0.0
2,13, 1,13, 0, 3, 0.00,60.00,Friday
10,13158423.644994015
872,13158423.644994013
1067,0.0
2,13, 1,13, 0, 4, 0.00,60.00,Friday
10,13158423.644994015
872,13158423.644994013
1067,0.0
2,13, 1,13, 0, 5, 0.00,60.00,Friday
10,13158423.644994015
872,13158423.644994013
1067,0.0
2,13, 1,13, 0, 6, 0.00,60.00,Friday
10,13970526.588477327
872,13970526.588477327
1067,0.0
2,13, 1,13, 0, 7, 0.00,60.00,Friday
10,27347906.88348655
872,27347906.88348655
1067,2461770.034292211
2,13, 1,13, 0, 8, 0.00,60.00,Friday
10,32733856.252032047
872,32733856.252032039
1067,0.0
2,13, 1,13, 0, 9, 0.00,60.00,Friday
10,35533487.38349719
872,35533487.38349719
1067,0.0
2,13, 1,13, 0,10, 0.00,60.00,Friday
10,33660364.01356149
872,33660364.01356149
1067,0.0
2,13, 1,13, 0,11, 0.00,60.00,Friday
10,33390457.99961899
872,33390457.99961899
1067,0.0
2,13, 1,13, 0,12, 0.00,60.00,Friday
10,32395079.369396345
872,32395079.369396349
1067,0.0
2,13, 1,13, 0,13, 0.00,60.00,Friday
10,32392923.156522488
872,32392923.15652249
1067,0.0
2,13, 1,13, 0,14, 0.00,60.00,Friday
10,30966278.11008778
872,30966278.110087776
1067,0.0
2,13, 1,13, 0,15, 0.00,60.00,Friday
10,31859259.65514866
872,31859259.655148657
1067,0.0
2,13, 1,13, 0,16, 0.00,60.00,Friday
10,32894605.397073337
872,32894605.397073345
1067,0.0
2,13, 1,13, 0,17, 0.00,60.00,Friday
10,35131430.44396154
872,35131430.443961549
1067,0.0
2,13, 1,13, 0,18, 0.00,60.00,Friday
10,35223568.98116545
872,35223568.981165457
1067,0.0
2,13, 1,13, 0,19, 0.00,60.00,Friday
10,31503314.07618422
872,31503314.07618422
1067,0.0
2,13, 1,13, 0,20, 0.00,60.00,Friday
10,13931418.059538959
872,13931418.059538955
1067,0.0
2,13, 1,13, 0,21, 0.00,60.00,Friday
10,12669894.910823152
872,12669894.910823152
1067,0.0
2,13, 1,13, 0,22, 0.00,60.00,Friday
10,12669894.910823152
872,12669894.910823152
1067,0.0
2,13, 1,13, 0,23, 0.00,60.00,Friday
10,11534524.076916658
872,11534524.076916658
1067,0.0
2,13, 1,13, 0,24, 0.00,60.00,Friday
10,11205881.415921547
872,11205881.415921547
1067,0.0
2,14, 1,14, 0, 1, 0.00,60.00,Saturday
10,10093157.415921547
872,10093157.415921547
1067,0.0
2,14, 1,14, 0, 2, 0.00,60.00,Saturday
10,10093157.415921547
872,10093157.415921547
1067,0.0
2,14, 1,14, 0, 3, 0.00,60.00,Saturday
10,10093157.415921547
872,10093157.415921547
1067,0.0
2,14, 1,14, 0, 4, 0.00,60.00,Saturday
10,10093157.415921547
872,10093157.415921547
1067,0.0
2,14, 1,14, 0, 5, 0.00,60.00,Saturday
10,10093157.415921547
872,10093157.415921547
1067,0.0
2,14, 1,14, 0, 6, 0.00,60.00,Saturday
10,10093157.415921547
872,10093157.415921547
1067,0.0
2,14, 1,14, 0, 7, 0.00,60.00,Saturday
10,11205881.415921547
872,11205881.415921547
1067,0.0
2,14, 1,14, 0, 8, 0.00,60.00,Saturday
10,10932281.415921547
872,10932281.415921547
1067,0.0
2,14, 1,14, 0, 9, 0.00,60.00,Saturday
10,7871754.225939823
872,7871754.225939823
1067,0.0
2,14, 1,14, 0,10, 0.00,60.00,Saturday
10,7583118.982657093
872,7583118.982657092
1067,0.0
2,14, 1,14, 0,11, 0.00,60.00,Saturday
10,7555495.133359088
872,7555495.133359087
1067,0.0
2,14, 1,14, 0,12, 0.00,60.00,Saturday
10,7523791.747996243