Program Version,EnergyPlus, Version 9.0.1-bb7ca4f0da, YMD=2024.07.02 13:20
1,5,Environment Title[],Latitude[deg],Longitude[deg],Time Zone[],Elevation[m]
2,8,Day of Simulation[],Month[],Day of Month[],DST Indicator[1=yes 0=no],Hour[],StartMinute[],EndMinute[],DayType
3,5,Cumulative Day of Simulation[],Month[],Day of Month[],DST Indicator[1=yes 0=no],DayType  ! When Daily Meters Requested
4,2,Cumulative Days of Simulation[],Month[]  ! When Monthly Meters Requested
5,1,Cumulative Days of Simulation[] ! When Run Period Meters Requested
6,1,Calendar Year of Simulation[] ! When Annual Meters Requested
9,1,Electricity:Facility [J] !Hourly
871,1,ElectricityNet:Facility [J] !Hourly
1066,1,Gas:Facility [J] !Hourly
End of Data Dictionary
1,RUNPERIOD 1,  47.47,-122.32,  -8.00, 122.00
2,1, 1, 1, 0, 1, 0.00,60.00,Holiday
9,11024254.802542033
871,11024254.802542033
1066,0.0
2,1, 1, 1, 0, 2, 0.00,60.00,Holiday
9,11436202.852156479
871,11436202.852156477
1066,0.0
2,1, 1, 1, 0, 3, 0.00,60.00,Holiday
9,11365456.986694372
871,11365456.986694372
1066,0.0
2,1, 1, 1, 0, 4, 0.00,60.00,Holiday
9,11327773.83946255
871,11327773.839462549
1066,0.0
2,1, 1, 1, 0, 5, 0.00,60.00,Holiday
9,10813203.409103349
871,10813203.409103349
1066,0.0
2,1, 1, 1, 0, 6, 0.00,60.00,Holiday
9,11174318.859979198
871,11174318.859979198
1066,0.0
2,1, 1, 1, 0, 7, 0.00,60.00,Holiday
9,11363135.609011995
871,11363135.609011995
1066,0.0
2,1, 1, 1, 0, 8, 0.00,60.00,Holiday
9,11873774.25521303
871,11873774.25521303
1066,0.0
2,1, 1, 1, 0, 9, 0.00,60.00,Holiday
9,8289845.660103538
871,8289845.660103539
1066,0.0
2,1, 1, 1, 0,10, 0.00,60.00,Holiday
9,7815564.890336892
871,7815564.890336892
1066,0.0
2,1, 1, 1, 0,11, 0.00,60.00,Holiday
9,6918013.566296235
871,6918013.566296234
1066,0.0
2,1, 1, 1, 0,12, 0.00,60.00,Holiday
9,6954313.575926061
871,6954313.575926061
1066,0.0
2,1, 1, 1, 0,13, 0.00,60.00,Holiday
9,7291149.433824884
871,7291149.433824884
1066,0.0
2,1, 1, 1, 0,14, 0.00,60.00,Holiday
9,7448138.177845075
871,7448138.177845074
1066,0.0
2,1, 1, 1, 0,15, 0.00,60.00,Holiday
9,7479397.488831054
871,7479397.488831054
1066,0.0
2,1, 1, 1, 0,16, 0.00,60.00,Holiday
9,7703747.733650038
871,7703747.733650038
1066,0.0
2,1, 1, 1, 0,17, 0.00,60.00,Holiday
9,10384277.730783422
871,10384277.730783422
1066,0.0
2,1, 1, 1, 0,18, 0.00,60.00,Holiday
9,11222213.06610269
871,11222213.06610269
1066,0.0
2,1, 1, 1, 0,19, 0.00,60.00,Holiday
9,11277546.330042532
871,11277546.330042532
1066,0.0
2,1, 1, 1, 0,20, 0.00,60.00,Holiday
9,11785615.403777522
871,11785615.403777522
1066,0.0
2,1, 1, 1, 0,21, 0.00,60.00,Holiday
9,12017573.624593027
871,12017573.624593026
1066,0.0
2,1, 1, 1, 0,22, 0.00,60.00,Holiday
9,12580087.654613045
871,12580087.654613045
1066,0.0
2,1, 1, 1, 0,23, 0.00,60.00,Holiday
9,12580251.765204043
871,12580251.765204043
1066,0.0
2,1, 1, 1, 0,24, 0.00,60.00,Holiday
9,12604035.380880589
871,12604035.380880589
1066,0.0
2,2, 1, 2, 0, 1, 0.00,60.00,Monday
9,13030380.961203879
871,13030380.961203879
1066,0.0
2,2, 1, 2, 0, 2, 0.00,60.00,Monday
9,12990279.338233928
871,12990279.338233928
1066,0.0
2,2, 1, 2, 0, 3, 0.00,60.00,Monday
9,13007453.985181118
871,13007453.985181118
1066,0.0
2,2, 1, 2, 0, 4, 0.00,60.00,Monday
9,13029602.402341905
871,13029602.4023419
1066,0.0
2,2, 1, 2, 0, 5, 0.00,60.00,Monday
9,12839505.244245092
871,12839505.244245092
1066,0.0
2,2, 1, 2, 0, 6, 0.00,60.00,Monday
9,13808691.903566124
871,13808691.90356612
1066,0.0
2,2, 1, 2, 0, 7, 0.00,60.00,Monday
9,42870460.24675434
871,42870460.24675435
1066,0.0
2,2, 1, 2, 0, 8, 0.00,60.00,Monday
9,44206428.32654612
871,44206428.32654611
1066,0.0
2,2, 1, 2, 0, 9, 0.00,60.00,Monday
9,47497230.60293387
871,47497230.60293387
1066,0.0
2,2, 1, 2, 0,10, 0.00,60.00,Monday
9,44685869.72117764
871,44685869.72117762
1066,0.0
2,2, 1, 2, 0,11, 0.00,60.00,Monday
9,42058729.56455308
871,42058729.564553078
1066,0.0
2,2, 1, 2, 0,12, 0.00,60.00,Monday
9,39597323.679478008
871,39597323.679478
1066,0.0
2,2, 1, 2, 0,13, 0.00,60.00,Monday
9,40005632.23466527
871,40005632.23466526
1066,0.0
2,2, 1, 2, 0,14, 0.00,60.00,Monday
9,38869497.896652508
871,38869497.896652508
1066,0.0
2,2, 1, 2, 0,15, 0.00,60.00,Monday
9,38403966.31116949
871,38403966.31116948
1066,0.0
2,2, 1, 2, 0,16, 0.00,60.00,Monday
9,38050821.53811688
871,38050821.53811687
1066,0.0
2,2, 1, 2, 0,17, 0.00,60.00,Monday
9,39664153.42549164
871,39664153.42549164
1066,0.0
2,2, 1, 2, 0,18, 0.00,60.00,Monday
9,35091125.569024179
871,35091125.56902418
1066,0.0
2,2, 1, 2, 0,19, 0.00,60.00,Monday
9,29668174.0088366
871,29668174.008836599
1066,0.0
2,2, 1, 2, 0,20, 0.00,60.00,Monday
9,13031418.059538957
871,13031418.059538952
1066,0.0
2,2, 1, 2, 0,21, 0.00,60.00,Monday
9,11769894.910823154
871,11769894.910823152
1066,0.0
2,2, 1, 2, 0,22, 0.00,60.00,Monday
9,11769894.910823154
871,11769894.910823152
1066,0.0
2,2, 1, 2, 0,23, 0.00,60.00,Monday
9,10634524.076916654
871,10634524.076916654
1066,0.0
2,2, 1, 2, 0,24, 0.00,60.00,Monday
9,10305881.415921549
871,10305881.415921549
1066,0.0
2,3, 1, 3, 0, 1, 0.00,60.00,Tuesday
9,12258423.644994012
871,12258423.644994012
1066,0.0
2,3, 1, 3, 0, 2, 0.00,60.00,Tuesday
9,12258423.644994012
871,12258423.644994012
1066,0.0
2,3, 1, 3, 0, 3, 0.00,60.00,Tuesday
9,12258423.644994012
871,12258423.644994012
1066,0.0
2,3, 1, 3, 0, 4, 0.00,60.00,Tuesday
9,12258423.644994012
871,12258423.644994012
1066,0.0
2,3, 1, 3, 0, 5, 0.00,60.00,Tuesday
9,12258423.644994012
871,12258423.644994012
1066,0.0
2,3, 1, 3, 0, 6, 0.00,60.00,Tuesday
9,13070526.588477325
871,13070526.58847732
1066,0.0
2,3, 1, 3, 0, 7, 0.00,60.00,Tuesday
9,33126660.72469797
871,33126660.72469797
1066,0.0
2,3, 1, 3, 0, 8, 0.00,60.00,Tuesday
9,36217056.63074595
871,36217056.63074595
1066,0.0
2,3, 1, 3, 0, 9, 0.00,60.00,Tuesday
9,38218012.32894898
871,38218012.328948978
1066,0.0
2,3, 1, 3, 0,10, 0.00,60.00,Tuesday
9,35873800.76708928
871,35873800.76708928
1066,0.0
2,3, 1, 3, 0,11, 0.00,60.00,Tuesday
9,33846826.98398131
871,33846826.983981307
1066,0.0
2,3, 1, 3, 0,12, 0.00,60.00,Tuesday
9,33660356.1843043
871,33660356.18430429
1066,0.0
2,3, 1, 3, 0,13, 0.00,60.00,Tuesday
9,33008975.93447884
871,33008975.93447884
1066,0.0
2,3, 1, 3, 0,14, 0.00,60.00,Tuesday
9,32257873.72889746
871,32257873.728897454
1066,0.0
2,3, 1, 3, 0,15, 0.00,60.00,Tuesday
9,33381763.883129635
871,33381763.883129628
1066,0.0
2,3, 1, 3, 0,16, 0.00,60.00,Tuesday
9,33303370.490513196
871,33303370.490513196
1066,0.0
2,3, 1, 3, 0,17, 0.00,60.00,Tuesday
9,35663924.94258559
871,35663924.94258559
1066,0.0
2,3, 1, 3, 0,18, 0.00,60.00,Tuesday
9,31856382.974515827
871,31856382.97451583
1066,0.0
2,3, 1, 3, 0,19, 0.00,60.00,Tuesday
9,26811845.32228242
871,26811845.32228242
1066,0.0
2,3, 1, 3, 0,20, 0.00,60.00,Tuesday
9,13031418.059538957
871,13031418.059538952
1066,0.0
2,3, 1, 3, 0,21, 0.00,60.00,Tuesday
9,11769894.910823154
871,11769894.910823152
1066,0.0
2,3, 1, 3, 0,22, 0.00,60.00,Tuesday
9,11769894.910823154
871,11769894.910823152
1066,0.0
2,3, 1, 3, 0,23, 0.00,60.00,Tuesday
9,10634524.076916654
871,10634524.076916654
1066,0.0
2,3, 1, 3, 0,24, 0.00,60.00,Tuesday
9,10305881.415921549
871,10305881.415921549
1066,0.0
2,4, 1, 4, 0, 1, 0.00,60.00,Wednesday
9,12258423.644994012
871,12258423.644994012
1066,0.0
2,4, 1, 4, 0, 2, 0.00,60.00,Wednesday
9,12258423.644994012
871,12258423.644994012
1066,0.0
2,4, 1, 4, 0, 3, 0.00,60.00,Wednesday
9,12258423.644994012
871,12258423.644994012
1066,0.0
2,4, 1, 4, 0, 4, 0.00,60.00,Wednesday
9,12258423.644994012
871,12258423.644994012
1066,0.0
2,4, 1, 4, 0, 5, 0.00,60.00,Wednesday
9,12258423.644994012
871,12258423.644994012
1066,0.0
2,4, 1, 4, 0, 6, 0.00,60.00,Wednesday
9,13070526.588477325
871,13070526.58847732
1066,0.0
2,4, 1, 4, 0, 7, 0.00,60.00,Wednesday
9,29566715.834291258
871,29566715.834291258
1066,0.0
2,4, 1, 4, 0, 8, 0.00,60.00,Wednesday
9,34006483.720968637
871,34006483.720968637
1066,0.0
2,4, 1, 4, 0, 9, 0.00,60.00,Wednesday
9,36308623.436931978
871,36308623.436931978
1066,0.0
2,4, 1, 4, 0,10, 0.00,60.00,Wednesday
9,35235781.95175604
871,35235781.95175604
1066,0.0
2,4, 1, 4, 0,11, 0.00,60.00,Wednesday
9,33874843.952179808
871,33874843.95217979
1066,0.0
2,4, 1, 4, 0,12, 0.00,60.00,Wednesday
9,32623344.000295037
871,32623344.000295029
1066,0.0
2,4, 1, 4, 0,13, 0.00,60.00,Wednesday
9,32521358.203604759
871,32521358.203604759
1066,0.0
2,4, 1, 4, 0,14, 0.00,60.00,Wednesday
9,31485799.098434256
871,31485799.098434248
1066,0.0
2,4, 1, 4, 0,15, 0.00,60.00,Wednesday
9,31549012.88921776
871,31549012.889217754
1066,0.0
2,4, 1, 4, 0,16, 0.00,60.00,Wednesday
9,31871864.426915625
871,31871864.426915617
1066,0.0
2,4, 1, 4, 0,17, 0.00,60.00,Wednesday
9,34331492.1264102
871,34331492.12641019
1066,0.0
2,4, 1, 4, 0,18, 0.00,60.00,Wednesday
9,30290942.842306779
871,30290942.842306779
1066,0.0
2,4, 1, 4, 0,19, 0.00,60.00,Wednesday
9,25806328.1082144
871,25806328.1082144
1066,0.0
2,4, 1, 4, 0,20, 0.00,60.00,Wednesday
9,13031418.059538957
871,13031418.059538952
1066,0.0
2,4, 1, 4, 0,21, 0.00,60.00,Wednesday
9,11769894.910823154
871,11769894.910823152
1066,0.0
2,4, 1, 4, 0,22, 0.00,60.00,Wednesday
9,11769894.910823154
871,11769894.910823152
1066,0.0
2,4, 1, 4, 0,23, 0.00,60.00,Wednesday
9,11084524.076916654
871,11084524.076916654
1066,0.0
2,4, 1, 4, 0,24, 0.00,60.00,Wednesday
9,11205881.415921549
871,11205881.415921549
1066,0.0
2,5, 1, 5, 0, 1, 0.00,60.00,Thursday
9,13158423.644994012
871,13158423.64499401
1066,0.0
2,5, 1, 5, 0, 2, 0.00,60.00,Thursday
9,13158423.644994012
871,13158423.64499401
1066,0.0
2,5, 1, 5, 0, 3, 0.00,60.00,Thursday
9,13158423.644994012
871,13158423.64499401
1066,0.0
2,5, 1, 5, 0, 4, 0.00,60.00,Thursday
9,13158423.644994012
871,13158423.64499401
1066,0.0
2,5, 1, 5, 0, 5, 0.00,60.00,Thursday
9,13158423.644994012
871,13158423.64499401
1066,0.0
2,5, 1, 5, 0, 6, 0.00,60.00,Thursday
9,13970526.588477325
871,13970526.588477325
1066,0.0
2,5, 1, 5, 0, 7, 0.00,60.00,Thursday
9,34963556.21162164
871,34963556.21162164
1066,5618324.12037063
2,5, 1, 5, 0, 8, 0.00,60.00,Thursday
9,43336427.13530366
871,43336427.13530367
1066,6320131.050084662
2,5, 1, 5, 0, 9, 0.00,60.00,Thursday
9,41536943.68704192
871,41536943.68704191
1066,0.0
2,5, 1, 5, 0,10, 0.00,60.00,Thursday
9,36380291.45550804
871,36380291.45550802
1066,0.0
2,5, 1, 5, 0,11, 0.00,60.00,Thursday
9,34534583.819526139
871,34534583.819526139
1066,0.0
2,5, 1, 5, 0,12, 0.00,60.00,Thursday
9,33978388.74376708
871,33978388.743767078
1066,0.0
2,5, 1, 5, 0,13, 0.00,60.00,Thursday
9,34557874.66406908
871,34557874.66406909
1066,0.0
2,5, 1, 5, 0,14, 0.00,60.00,Thursday
9,31761031.861362749
871,31761031.861362734
1066,0.0
2,5, 1, 5, 0,15, 0.00,60.00,Thursday
9,31074698.127217227
871,31074698.12721722
1066,0.0
2,5, 1, 5, 0,16, 0.00,60.00,Thursday
9,30530182.21874106
871,30530182.218741057
1066,0.0
2,5, 1, 5, 0,17, 0.00,60.00,Thursday
9,34249870.219412509
871,34249870.219412509
1066,0.0
2,5, 1, 5, 0,18, 0.00,60.00,Thursday
9,31124828.63389236
871,31124828.633892359
1066,0.0
2,5, 1, 5, 0,19, 0.00,60.00,Thursday
9,26739733.22135096
871,26739733.22135096
1066,0.0
2,5, 1, 5, 0,20, 0.00,60.00,Thursday
9,13931418.059538957
871,13931418.059538952
1066,0.0
2,5, 1, 5, 0,21, 0.00,60.00,Thursday
9,12669894.910823152
871,12669894.910823152
1066,0.0
2,5, 1, 5, 0,22, 0.00,60.00,Thursday
9,12669894.910823152
871,12669894.910823152
1066,0.0
2,5, 1, 5, 0,23, 0.00,60.00,Thursday
9,11534524.076916654
871,11534524.076916654
1066,0.0
2,5, 1, 5, 0,24, 0.00,60.00,Thursday
9,11205881.415921549
871,11205881.415921549
1066,0.0
2,6, 1, 6, 0, 1, 0.00,60.00,Friday
9,13158423.644994012
871,13158423.64499401
1066,0.0
2,6, 1, 6, 0, 2, 0.00,60.00,Friday
9,13158423.644994012
871,13158423.64499401
1066,0.0
2,6, 1, 6, 0, 3, 0.00,60.00,Friday
9,13158423.644994012
871,13158423.64499401
1066,0.0
2,6, 1, 6, 0, 4, 0.00,60.00,Friday
9,13158423.644994012
871,13158423.64499401
1066,0.0
2,6, 1, 6, 0, 5, 0.00,60.00,Friday
9,13158423.644994012
871,13158423.64499401
1066,0.0
2,6, 1, 6, 0, 6, 0.00,60.00,Friday
9,13970526.588477325
871,13970526.588477325
1066,0.0
2,6, 1, 6, 0, 7, 0.00,60.00,Friday
9,34258664.751482497
871,34258664.751482497
1066,5670903.729986248
2,6, 1, 6, 0, 8, 0.00,60.00,Friday
9,42741399.22549566
871,42741399.22549566
1066,10946520.5078932
2,6, 1, 6, 0, 9, 0.00,60.00,Friday
9,43242522.80292359
871,43242522.802923578
1066,0.0
2,6, 1, 6, 0,10, 0.00,60.00,Friday
9,39237543.220990817
871,39237543.22099081
1066,0.0
2,6, 1, 6, 0,11, 0.00,60.00,Friday
9,37670269.257136758
871,37670269.25713675
1066,0.0
2,6, 1, 6, 0,12, 0.00,60.00,Friday
9,35477558.21206773
871,35477558.21206772
1066,0.0
2,6, 1, 6, 0,13, 0.00,60.00,Friday
9,37372266.77558612
871,37372266.77558612
1066,0.0
2,6, 1, 6, 0,14, 0.00,60.00,Friday
9,32808165.374034108
871,32808165.3740341
1066,0.0
2,6, 1, 6, 0,15, 0.00,60.00,Friday
9,32370111.16029094
871,32370111.160290936
1066,0.0
2,6, 1, 6, 0,16, 0.00,60.00,Friday
9,32145649.280324609
871,32145649.2803246
1066,0.0
2,6, 1, 6, 0,17, 0.00,60.00,Friday
9,35565096.82575578
871,35565096.825755778
1066,0.0
2,6, 1, 6, 0,18, 0.00,60.00,Friday
9,37112843.76911233
871,37112843.76911233
1066,0.0
2,6, 1, 6, 0,19, 0.00,60.00,Friday
9,32647843.062461955
871,32647843.062461959
1066,0.0
2,6, 1, 6, 0,20, 0.00,60.00,Friday
9,13931418.059538957
871,13931418.059538952
1066,0.0
2,6, 1, 6, 0,21, 0.00,60.00,Friday
9,12669894.910823152
871,12669894.910823152
1066,0.0
2,6, 1, 6, 0,22, 0.00,60.00,Friday
9,12669894.910823152
871,12669894.910823152
1066,0.0
2,6, 1, 6, 0,23, 0.00,60.00,Friday
9,11534524.076916654
871,11534524.076916654
1066,0.0
2,6, 1, 6, 0,24, 0.00,60.00,Friday
9,11205881.415921549
871,11205881.415921549
1066,0.0
2,7, 1, 7, 0, 1, 0.00,60.00,Saturday
9,10093157.415921549
871,10093157.415921549
1066,0.0
2,7, 1, 7, 0, 2, 0.00,60.00,Saturday
9,10093157.415921549
871,10093157.415921549
1066,0.0
2,7, 1, 7, 0, 3, 0.00,60.00,Saturday
9,10093157.415921549
871,10093157.415921549
1066,0.0
2,7, 1, 7, 0, 4, 0.00,60.00,Saturday
9,10093157.415921549
871,10093157.415921549
1066,0.0
2,7, 1, 7, 0, 5, 0.00,60.00,Saturday
9,10093157.415921549
871,10093157.415921549
1066,0.0
2,7, 1, 7, 0, 6, 0.00,60.00,Saturday
9,10093157.415921549
871,10093157.415921549
1066,0.0
2,7, 1, 7, 0, 7, 0.00,60.00,Saturday
9,11205881.415921549
871,11205881.415921549
1066,0.0
2,7, 1, 7, 0, 8, 0.00,60.00,Saturday
9,11205881.415921549
871,11205881.415921549
1066,0.0
2,7, 1, 7, 0, 9, 0.00,60.00,Saturday
9,7817358.056945024
871,7817358.056945024
1066,0.0
2,7, 1, 7, 0,10, 0.00,60.00,Saturday
9,7602116.741062625
871,7602116.741062624
1066,0.0
2,7, 1, 7, 0,11, 0.00,60.00,Saturday
9,7557515.88123565
871,7557515.881235649
1066,0.0
2,7, 1, 7, 0,12, 0.00,60.00,Saturday
9,7524114.65572457
871,7524114.65572457
1066,0.0
2,7, 1, 7, 0,13, 0.00,60.00,Saturday
9,7563254.921628925
871,7563254.921628924
1066,0.0
2,7, 1, 7, 0,14, 0.00,60.00,Saturday
9,7572659.09009133
871,7572659.09009133
1066,0.0
2,7, 1, 7, 0,15, 0.00,60.00,Saturday
9,7628061.069330909
871,7628061.06933091
1066,0.0
2,7, 1, 7, 0,16, 0.00,60.00,Saturday
9,7646717.600889603
871,7646717.600889601
1066,0.0
2,7, 1, 7, 0,17, 0.00,60.00,Saturday
9,10083279.042013349
871,10083279.042013349
1066,0.0
2,7, 1, 7, 0,18, 0.00,60.00,Saturday
9,11205881.415921549
871,11205881.415921549
1066,0.0
2,7, 1, 7, 0,19, 0.00,60.00,Saturday
9,11205881.415921549
871,11205881.415921549
1066,0.0
2,7, 1, 7, 0,20, 0.00,60.00,Saturday
9,11205881.415921549
871,11205881.415921549
1066,0.0
2,7, 1, 7, 0,21, 0.00,60.00,Saturday
9,11205881.415921549
871,11205881.415921549
1066,0.0
2,7, 1, 7, 0,22, 0.00,60.00,Saturday
9,11205881.415921549
871,11205881.415921549
1066,0.0
2,7, 1, 7, 0,23, 0.00,60.00,Saturday
9,11205881.415921549
871,11205881.415921549
1066,0.0
2,7, 1, 7, 0,24, 0.00,60.00,Saturday
9,11205881.415921549
871,11205881.415921549
1066,0.0
2,8, 1, 8, 0, 1, 0.00,60.00,Sunday
9,10093157.415921549
871,10093157.415921549
1066,0.0
2,8, 1, 8, 0, 2, 0.00,60.00,Sunday
9,10093157.415921549
871,10093157.415921549
1066,0.0
2,8, 1, 8, 0, 3, 0.00,60.00,Sunday
9,10093157.415921549
871,10093157.415921549
1066,0.0
2,8, 1, 8, 0, 4, 0.00,60.00,Sunday
9,10093157.415921549
871,10093157.415921549
1066,0.0
2,8, 1, 8, 0, 5, 0.00,60.00,Sunday
9,10093157.415921549
871,10093157.415921549
1066,0.0
2,8, 1, 8, 0, 6, 0.00,60.00,Sunday
9,10093157.415921549
871,10093157.415921549
1066,0.0
2,8, 1, 8, 0, 7, 0.00,60.00,Sunday
9,11205881.415921549
871,11205881.415921549
1066,0.0
2,8, 1, 8, 0, 8, 0.00,60.00,Sunday
9,11205881.415921549
871,11205881.415921549
1066,0.0
2,8, 1, 8, 0, 9, 0.00,60.00,Sunday
9,7878320.457824385
871,7878320.457824385
1066,0.0
2,8, 1, 8, 0,10, 0.00,60.00,Sunday
9,7641587.43108659
871,7641587.431086588
1066,0.0
2,8, 1, 8, 0,11, 0.00,60.00,Sunday
9,7579369.753144132
871,7579369.753144132
1066,0.0
2,8, 1, 8, 0,12, 0.00,60.00,Sunday
9,7594146.184029992
871,7594146.184029992
1066,0.0
2,8, 1, 8, 0,13, 0.00,60.00,Sunday
9,7455698.154549323
871,7455698.154549323
1066,0.0
2,8, 1, 8, 0,14, 0.00,60.00,Sunday
9,6668495.335014929
871,6668495.335014929
1066,0.0
2,8, 1, 8, 0,15, 0.00,60.00,Sunday
9,6722930.899527896
871,6722930.899527895
1066,0.0
2,8, 1, 8, 0,16, 0.00,60.00,Sunday
9,6745628.926839717
871,6745628.926839717
1066,0.0
2,8, 1, 8, 0,17, 0.00,60.00,Sunday
9,10081544.552506812
871,10081544.552506812
1066,0.0
2,8, 1, 8, 0,18, 0.00,60.00,Sunday
9,11205881.415921549
871,11205881.415921549
1066,0.0
2,8, 1, 8, 0,19, 0.00,60.00,Sunday
9,11205881.415921549
871,11205881.415921549
1066,0.0
2,8, 1, 8, 0,20, 0.00,60.00,Sunday
9,11205881.415921549
871,11205881.415921549
1066,0.0
2,8, 1, 8, 0,21, 0.00,60.00,Sunday
9,11205881.415921549
871,11205881.415921549
1066,0.0
2,8, 1, 8, 0,22, 0.00,60.00,Sunday
9,11205881.415921549
871,11205881.415921549
1066,0.0
2,8, 1, 8, 0,23, 0.00,60.00,Sunday
9,11205881.415921549
871,11205881.415921549
1066,0.0
2,8, 1, 8, 0,24, 0.00,60.00,Sunday
9,11205881.415921549
871,11205881.415921549
1066,0.0
2,9, 1, 9, 0, 1, 0.00,60.00,Monday
9,13158423.644994012
871,13158423.64499401
1066,0.0
2,9, 1, 9, 0, 2, 0.00,60.00,Monday
9,13158423.644994012
871,13158423.64499401
1066,0.0
2,9, 1, 9, 0, 3, 0.00,60.00,Monday
9,13158423.644994012
871,13158423.64499401
1066,0.0
2,9, 1, 9, 0, 4, 0.00,60.00,Monday
9,13158423.644994012
871,13158423.64499401
1066,0.0
2,9, 1, 9, 0, 5, 0.00,60.00,Monday
9,13158423.644994012
871,13158423.64499401
1066,0.0
2,9, 1, 9, 0, 6, 0.00,60.00,Monday
9,13970526.588477325
871,13970526.588477325
1066,0.0
2,9, 1, 9, 0, 7, 0.00,60.00,Monday
9,36172937.900349419
871,36172937.900349419
1066,18970339.2605564
2,9, 1, 9, 0, 8, 0.00,60.00,Monday
9,43919729.11861679
871,43919729.11861678
1066,17478951.85058357
2,9, 1, 9, 0, 9, 0.00,60.00,Monday
9,45888237.66211554
871,45888237.66211553
1066,3550957.0357984399
2,9, 1, 9, 0,10, 0.00,60.00,Monday
9,41126550.38176998
871,41126550.38176997
1066,819653.6378523989
2,9, 1, 9, 0,11, 0.00,60.00,Monday
9,36519195.74620572
871,36519195.74620571
1066,0.0
2,9, 1, 9, 0,12, 0.00,60.00,Monday
9,33941739.19622149
871,33941739.196221489
1066,0.0
2,9, 1, 9, 0,13, 0.00,60.00,Monday
9,32417501.513965757
871,32417501.51396575
1066,0.0
2,9, 1, 9, 0,14, 0.00,60.00,Monday
9,32507924.44144648
871,32507924.441446477
1066,0.0
2,9, 1, 9, 0,15, 0.00,60.00,Monday
9,32736595.63992316
871,32736595.639923157
1066,0.0
2,9, 1, 9, 0,16, 0.00,60.00,Monday
9,33167481.00878886
871,33167481.008788855
1066,0.0
2,9, 1, 9, 0,17, 0.00,60.00,Monday
9,35607940.29013872
871,35607940.29013872
1066,0.0
2,9, 1, 9, 0,18, 0.00,60.00,Monday
9,32263430.27981178
871,32263430.27981178
1066,0.0
2,9, 1, 9, 0,19, 0.00,60.00,Monday
9,26865372.142146846
871,26865372.14214684
1066,0.0
2,9, 1, 9, 0,20, 0.00,60.00,Monday
9,13031418.059538957
871,13031418.059538952
1066,0.0
2,9, 1, 9, 0,21, 0.00,60.00,Monday
9,11769894.910823154
871,11769894.910823152
1066,0.0
2,9, 1, 9, 0,22, 0.00,60.00,Monday
9,11769894.910823154
871,11769894.910823152
1066,0.0
2,9, 1, 9, 0,23, 0.00,60.00,Monday
9,10634524.076916654
871,10634524.076916654
1066,0.0
2,9, 1, 9, 0,24, 0.00,60.00,Monday
9,10305881.415921549
871,10305881.415921549
1066,0.0
2,10, 1,10, 0, 1, 0.00,60.00,Tuesday
9,12258423.644994012
871,12258423.644994012
1066,0.0
2,10, 1,10, 0, 2, 0.00,60.00,Tuesday
9,12258423.644994012
871,12258423.644994012
1066,0.0
2,10, 1,10, 0, 3, 0.00,60.00,Tuesday
9,12258423.644994012
871,12258423.644994012
1066,0.0
2,10, 1,10, 0, 4, 0.00,60.00,Tuesday
9,12258423.644994012
871,12258423.644994012
1066,0.0
2,10, 1,10, 0, 5, 0.00,60.00,Tuesday
9,12258423.644994012
871,12258423.644994012
1066,0.0
2,10, 1,10, 0, 6, 0.00,60.00,Tuesday
9,13070526.588477325
871,13070526.58847732
1066,0.0
2,10, 1,10, 0, 7, 0.00,60.00,Tuesday
9,29288306.516931777
871,29288306.516931774
1066,0.0
2,10, 1,10, 0, 8, 0.00,60.00,Tuesday
9,34166314.10346803
871,34166314.10346803
1066,0.0
2,10, 1,10, 0, 9, 0.00,60.00,Tuesday
9,34787337.71020015
871,34787337.71020015
1066,0.0
2,10, 1,10, 0,10, 0.00,60.00,Tuesday
9,32388082.048144845
871,32388082.04814484
1066,0.0
2,10, 1,10, 0,11, 0.00,60.00,Tuesday
9,31961916.80760007
871,31961916.807600067
1066,0.0
2,10, 1,10, 0,12, 0.00,60.00,Tuesday
9,31450756.347518945
871,31450756.34751894
1066,0.0
2,10, 1,10, 0,13, 0.00,60.00,Tuesday
9,30889106.155312845
871,30889106.155312838
1066,0.0
2,10, 1,10, 0,14, 0.00,60.00,Tuesday
9,31256539.04100679
871,31256539.041006786
1066,0.0
2,10, 1,10, 0,15, 0.00,60.00,Tuesday
9,30935284.65721591
871,30935284.6572159
1066,0.0
2,10, 1,10, 0,16, 0.00,60.00,Tuesday
9,31139520.550241926
871,31139520.550241915
1066,0.0
2,10, 1,10, 0,17, 0.00,60.00,Tuesday
9,32916346.259953098
871,32916346.25995309
1066,0.0
2,10, 1,10, 0,18, 0.00,60.00,Tuesday
9,27966818.550718465
871,27966818.55071847
1066,0.0
2,10, 1,10, 0,19, 0.00,60.00,Tuesday
9,22707455.908793376
871,22707455.90879338
1066,0.0
2,10, 1,10, 0,20, 0.00,60.00,Tuesday
9,13031418.059538957
871,13031418.059538952
1066,0.0
2,10, 1,10, 0,21, 0.00,60.00,Tuesday
9,11769894.910823154
871,11769894.910823152
1066,0.0
2,10, 1,10, 0,22, 0.00,60.00,Tuesday
9,11769894.910823154
871,11769894.910823152
1066,0.0
2,10, 1,10, 0,23, 0.00,60.00,Tuesday
9,10634524.076916654
871,10634524.076916654
1066,0.0
2,10, 1,10, 0,24, 0.00,60.00,Tuesday
9,10305881.415921549
871,10305881.415921549
1066,0.0
2,11, 1,11, 0, 1, 0.00,60.00,Wednesday
9,12258423.644994012
871,12258423.644994012
1066,0.0
2,11, 1,11, 0, 2, 0.00,60.00,Wednesday
9,12258423.644994012
871,12258423.644994012
1066,0.0
2,11, 1,11, 0, 3, 0.00,60.00,Wednesday
9,12258423.644994012
871,12258423.644994012
1066,0.0
2,11, 1,11, 0, 4, 0.00,60.00,Wednesday
9,12258423.644994012
871,12258423.644994012
1066,0.0
2,11, 1,11, 0, 5, 0.00,60.00,Wednesday
9,12258423.644994012
871,12258423.644994012
1066,0.0
2,11, 1,11, 0, 6, 0.00,60.00,Wednesday
9,13070526.588477325
871,13070526.58847732
1066,0.0
2,11, 1,11, 0, 7, 0.00,60.00,Wednesday
9,23543580.583633879
871,23543580.583633879
1066,0.0
2,11, 1,11, 0, 8, 0.00,60.00,Wednesday
9,28247251.005093058
871,28247251.00509306
1066,0.0
2,11, 1,11, 0, 9, 0.00,60.00,Wednesday
9,31850764.101764304
871,31850764.1017643
1066,0.0
2,11, 1,11, 0,10, 0.00,60.00,Wednesday
9,30160797.003282574
871,30160797.00328257
1066,0.0
2,11, 1,11, 0,11, 0.00,60.00,Wednesday
9,30227661.280571075
871,30227661.280571067
1066,0.0
2,11, 1,11, 0,12, 0.00,60.00,Wednesday
9,29689555.633022909
871,29689555.633022898
1066,0.0
2,11, 1,11, 0,13, 0.00,60.00,Wednesday
9,27927910.962688265
871,27927910.96268826
1066,0.0
2,11, 1,11, 0,14, 0.00,60.00,Wednesday
9,29544508.892108628
871,29544508.89210861
1066,0.0
2,11, 1,11, 0,15, 0.00,60.00,Wednesday
9,29891853.80434885
871,29891853.80434884
1066,0.0
2,11, 1,11, 0,16, 0.00,60.00,Wednesday
9,30922120.94510818
871,30922120.945108177
1066,0.0
2,11, 1,11, 0,17, 0.00,60.00,Wednesday
9,32697396.002442536
871,32697396.002442536
1066,0.0
2,11, 1,11, 0,18, 0.00,60.00,Wednesday
9,24842653.91543667
871,24842653.91543667
1066,0.0
2,11, 1,11, 0,19, 0.00,60.00,Wednesday
9,19596133.369796214
871,19596133.36979621
1066,0.0
2,11, 1,11, 0,20, 0.00,60.00,Wednesday
9,13031418.059538957
871,13031418.059538952
1066,0.0
2,11, 1,11, 0,21, 0.00,60.00,Wednesday
9,11769894.910823154
871,11769894.910823152
1066,0.0
2,11, 1,11, 0,22, 0.00,60.00,Wednesday
9,11769894.910823154
871,11769894.910823152
1066,0.0
2,11, 1,11, 0,23, 0.00,60.00,Wednesday
9,10634524.076916654
871,10634524.076916654
1066,0.0
2,11, 1,11, 0,24, 0.00,60.00,Wednesday
9,10305881.415921549
871,10305881.415921549
1066,0.0
2,12, 1,12, 0, 1, 0.00,60.00,Thursday
9,12258423.644994012
871,12258423.644994012
1066,0.0
2,12, 1,12, 0, 2, 0.00,60.00,Thursday
9,12258423.644994012
871,12258423.644994012
1066,0.0
2,12, 1,12, 0, 3, 0.00,60.00,Thursday
9,12258423.644994012
871,12258423.644994012
1066,0.0
2,12, 1,12, 0, 4, 0.00,60.00,Thursday
9,12258423.644994012
871,12258423.644994012
1066,0.0
2,12, 1,12, 0, 5, 0.00,60.00,Thursday
9,12258423.644994012
871,12258423.644994012
1066,0.0
2,12, 1,12, 0, 6, 0.00,60.00,Thursday
9,13070526.588477325
871,13070526.58847732
1066,0.0
2,12, 1,12, 0, 7, 0.00,60.00,Thursday
9,22919359.301481978
871,22919359.30148198
1066,0.0
2,12, 1,12, 0, 8, 0.00,60.00,Thursday
9,28439931.21673484
871,28439931.21673484
1066,0.0
2,12, 1,12, 0, 9, 0.00,60.00,Thursday
9,32197021.854953708
871,32197021.854953708
1066,0.0
2,12, 1,12, 0,10, 0.00,60.00,Thursday
9,31549634.44195305
871,31549634.441953046
1066,0.0
2,12, 1,12, 0,11, 0.00,60.00,Thursday
9,30832012.874090963
871,30832012.874090949
1066,0.0
2,12, 1,12, 0,12, 0.00,60.00,Thursday
9,30492204.48456935
871,30492204.48456934
1066,0.0
2,12, 1,12, 0,13, 0.00,60.00,Thursday
9,29520758.04344369
871,29520758.04344369
1066,0.0
2,12, 1,12, 0,14, 0.00,60.00,Thursday
9,29711863.464479526
871,29711863.46447952
1066,0.0
2,12, 1,12, 0,15, 0.00,60.00,Thursday
9,30725309.06500698
871,30725309.065006976
1066,0.0
2,12, 1,12, 0,16, 0.00,60.00,Thursday
9,30289079.23429551
871,30289079.234295504
1066,0.0
2,12, 1,12, 0,17, 0.00,60.00,Thursday
9,32697396.002442536
871,32697396.002442536
1066,0.0
2,12, 1,12, 0,18, 0.00,60.00,Thursday
9,27957136.37135313
871,27957136.371353128
1066,0.0
2,12, 1,12, 0,19, 0.00,60.00,Thursday
9,22985642.59511713
871,22985642.59511713
1066,0.0
2,12, 1,12, 0,20, 0.00,60.00,Thursday
9,13031418.059538957
871,13031418.059538952
1066,0.0
2,12, 1,12, 0,21, 0.00,60.00,Thursday
9,11769894.910823154
871,11769894.910823152
1066,0.0
2,12, 1,12, 0,22, 0.00,60.00,Thursday
9,11769894.910823154
871,11769894.910823152
1066,0.0
2,12, 1,12, 0,23, 0.00,60.00,Thursday
9,10634524.076916654
871,10634524.076916654
1066,0.0
2,12, 1,12, 0,24, 0.00,60.00,Thursday
9,10305881.415921549
871,10305881.415921549
1066,0.0
2,13, 1,13, 0, 1, 0.00,60.00,Friday
9,13158423.644994012
871,13158423.64499401
1066,0.0
2,13, 1,13, 0, 2, 0.00,60.00,Friday
9,13158423.644994012
871,13158423.64499401
1066,0.0
2,13, 1,13, 0, 3, 0.00,60.00,Friday
9,13158423.644994012
871,13158423.64499401
1066,0.0
2,13, 1,13, 0, 4, 0.00,60.00,Friday
9,13158423.644994012
871,13158423.64499401
1066,0.0
2,13, 1,13, 0, 5, 0.00,60.00,Friday
9,13158423.644994012
871,13158423.64499401
1066,0.0
2,13, 1,13, 0, 6, 0.00,60.00,Friday
9,13970526.588477325
871,13970526.588477325
1066,0.0
2,13, 1,13, 0, 7, 0.00,60.00,Friday
9,27378162.859084876
871,27378162.859084876
1066,1834060.1270612265
2,13, 1,13, 0, 8, 0.00,60.00,Friday
9,32787182.099701983
871,32787182.099701987
1066,0.0
2,13, 1,13, 0, 9, 0.00,60.00,Friday
9,35458714.866241898
871,35458714.866241898
1066,0.0
2,13, 1,13, 0,10, 0.00,60.00,Friday
9,33672486.22413481
871,33672486.2241348
1066,0.0
2,13, 1,13, 0,11, 0.00,60.00,Friday
9,33388285.683766109
871,33388285.68376611
1066,0.0
2,13, 1,13, 0,12, 0.00,60.00,Friday
9,32319234.650479139
871,32319234.65047913
1066,0.0
2,13, 1,13, 0,13, 0.00,60.00,Friday
9,32339404.023961754
871,32339404.02396175
1066,0.0
2,13, 1,13, 0,14, 0.00,60.00,Friday
9,31008393.547982985
871,31008393.547982977
1066,0.0
2,13, 1,13, 0,15, 0.00,60.00,Friday
9,31921792.751701487
871,31921792.751701476
1066,0.0
2,13, 1,13, 0,16, 0.00,60.00,Friday
9,32941582.232015674
871,32941582.232015674
1066,0.0
2,13, 1,13, 0,17, 0.00,60.00,Friday
9,35448336.86824395
871,35448336.86824395
1066,0.0
2,13, 1,13, 0,18, 0.00,60.00,Friday
9,35606331.36023697
871,35606331.36023697
1066,0.0
2,13, 1,13, 0,19, 0.00,60.00,Friday
9,31558899.206788608
871,31558899.206788605
1066,0.0
2,13, 1,13, 0,20, 0.00,60.00,Friday
9,13931418.059538957
871,13931418.059538952
1066,0.0
2,13, 1,13, 0,21, 0.00,60.00,Friday
9,12669894.910823152
871,12669894.910823152
1066,0.0
2,13, 1,13, 0,22, 0.00,60.00,Friday
9,12669894.910823152
871,12669894.910823152
1066,0.0
2,13, 1,13, 0,23, 0.00,60.00,Friday
9,11534524.076916654
871,11534524.076916654
1066,0.0
2,13, 1,13, 0,24, 0.00,60.00,Friday
9,11205881.415921549
871,11205881.415921549
1066,0.0
2,14, 1,14, 0, 1, 0.00,60.00,Saturday
9,10093157.415921549
871,10093157.415921549
1066,0.0
2,14, 1,14, 0, 2, 0.00,60.00,Saturday
9,10093157.415921549
871,10093157.415921549
1066,0.0
2,14, 1,14, 0, 3, 0.00,60.00,Saturday
9,10093157.415921549
871,10093157.415921549
1066,0.0
2,14, 1,14, 0, 4, 0.00,60.00,Saturday
9,10093157.415921549
871,10093157.415921549
1066,0.0
2,14, 1,14, 0, 5, 0.00,60.00,Saturday
9,10093157.415921549
871,10093157.415921549
1066,0.0
2,14, 1,14, 0, 6, 0.00,60.00,Saturday
9,10093157.415921549
871,10093157.415921549
1066,0.0
2,14, 1,14, 0, 7, 0.00,60.00,Saturday
9,11205881.415921549
871,11205881.415921549
1066,0.0
2,14, 1,14, 0, 8, 0.00,60.00,Saturday
9,10658681.415921549
871,10658681.415921549
1066,0.0
2,14, 1,14, 0, 9, 0.00,60.00,Saturday
9,7864542.178598611
871,7864542.178598611
1066,0.0
2,14, 1,14, 0,10, 0.00,60.00,Saturday
9,7579117.835674038
871,7579117.835674038
1066,0.0
2,14, 1,14, 0,11, 0.00,60.00,Saturday
9,7552385.711432638
871,7552385.711432636
1066,0.0
2,14, 1,14, 0,12, 0.00,60.00,Saturday
9,7524114.65572457
871,7524114.65572457
1066,0.0
2,14, 1,14, 0,13, 0.00,60.00,Saturday
9,6942088.426960221
871,6942088.426960221
1066,0.0
2,14, 1,14, 0,14, 0.00,60.00,Saturday
9,6642052.073110012
871,6642052.073110012
1066,0.0
2,14, 1,14, 0,15, 0.00,60.00,Saturday
9,6656667.108915577
871,6656667.108915577
1066,0.0
2,14, 1,14, 0,16, 0.00,60.00,Saturday
9,7195628.926839717