Program Version,EnergyPlus, Version 9.0.1-bb7ca4f0da, YMD=2024.06.07 13:51
1,5,Environment Title[],Latitude[deg],Longitude[deg],Time Zone[],Elevation[m]
2,8,Day of Simulation[],Month[],Day of Month[],DST Indicator[1=yes 0=no],Hour[],StartMinute[],EndMinute[],DayType
3,5,Cumulative Day of Simulation[],Month[],Day of Month[],DST Indicator[1=yes 0=no],DayType  ! When Daily Meters Requested
4,2,Cumulative Days of Simulation[],Month[]  ! When Monthly Meters Requested
5,1,Cumulative Days of Simulation[] ! When Run Period Meters Requested
6,1,Calendar Year of Simulation[] ! When Annual Meters Requested
9,1,Electricity:Facility [J] !Hourly
871,1,ElectricityNet:Facility [J] !Hourly
1066,1,Gas:Facility [J] !Hourly
End of Data Dictionary
1,RUNPERIOD 1,  64.82,-147.85,  -9.00, 133.00
2,1, 1, 1, 0, 1, 0.00,60.00,Holiday
9,13837152.698281188
871,13837152.698281186
1066,22732455.277934486
2,1, 1, 1, 0, 2, 0.00,60.00,Holiday
9,13426072.43049695
871,13426072.43049695
1066,18692930.824454715
2,1, 1, 1, 0, 3, 0.00,60.00,Holiday
9,14183292.81169829
871,14183292.811698288
1066,20101022.11633124
2,1, 1, 1, 0, 4, 0.00,60.00,Holiday
9,13440234.55316649
871,13440234.553166489
1066,16937580.520481025
2,1, 1, 1, 0, 5, 0.00,60.00,Holiday
9,14300366.471416692
871,14300366.471416692
1066,20141581.806054236
2,1, 1, 1, 0, 6, 0.00,60.00,Holiday
9,13425493.485748599
871,13425493.485748599
1066,18300720.796397199
2,1, 1, 1, 0, 7, 0.00,60.00,Holiday
9,15299892.12103546
871,15299892.12103546
1066,23597256.62803083
2,1, 1, 1, 0, 8, 0.00,60.00,Holiday
9,14792421.282567913
871,14792421.28256791
1066,21950444.43768479
2,1, 1, 1, 0, 9, 0.00,60.00,Holiday
9,15349963.42727251
871,15349963.42727251
1066,27597127.765509745
2,1, 1, 1, 0,10, 0.00,60.00,Holiday
9,14785759.449960718
871,14785759.449960718
1066,22474990.31931755
2,1, 1, 1, 0,11, 0.00,60.00,Holiday
9,14891651.328159027
871,14891651.328159027
1066,23693247.925474477
2,1, 1, 1, 0,12, 0.00,60.00,Holiday
9,11521974.583743172
871,11521974.583743172
1066,20431602.461813407
2,1, 1, 1, 0,13, 0.00,60.00,Holiday
9,11665328.31888733
871,11665328.31888733
1066,24349281.1589726
2,1, 1, 1, 0,14, 0.00,60.00,Holiday
9,10942187.1792979
871,10942187.1792979
1066,20068524.47318751
2,1, 1, 1, 0,15, 0.00,60.00,Holiday
9,13206615.344321412
871,13206615.344321412
1066,20706401.014518035
2,1, 1, 1, 0,16, 0.00,60.00,Holiday
9,14245387.28518253
871,14245387.28518253
1066,17463161.342572996
2,1, 1, 1, 0,17, 0.00,60.00,Holiday
9,14885913.107868843
871,14885913.107868843
1066,22559707.037685854
2,1, 1, 1, 0,18, 0.00,60.00,Holiday
9,14288430.280737328
871,14288430.280737324
1066,20719110.183424757
2,1, 1, 1, 0,19, 0.00,60.00,Holiday
9,14912939.30491696
871,14912939.304916956
1066,24564297.505727106
2,1, 1, 1, 0,20, 0.00,60.00,Holiday
9,14184313.091134465
871,14184313.091134465
1066,21693095.73861602
2,1, 1, 1, 0,21, 0.00,60.00,Holiday
9,14779999.426177048
871,14779999.426177044
1066,23100003.729857465
2,1, 1, 1, 0,22, 0.00,60.00,Holiday
9,14382875.202815326
871,14382875.202815323
1066,22058350.13293811
2,1, 1, 1, 0,23, 0.00,60.00,Holiday
9,14896141.769805227
871,14896141.769805227
1066,23700474.93302037
2,1, 1, 1, 0,24, 0.00,60.00,Holiday
9,14288573.183641067
871,14288573.183641067
1066,20694463.271871985
2,2, 1, 2, 0, 1, 0.00,60.00,Monday
9,16794187.61122742
871,16794187.61122742
1066,21253113.935998855
2,2, 1, 2, 0, 2, 0.00,60.00,Monday
9,16182059.565754328
871,16182059.565754328
1066,17954217.512012565
2,2, 1, 2, 0, 3, 0.00,60.00,Monday
9,16818240.029721358
871,16818240.029721358
1066,19411602.715871306
2,2, 1, 2, 0, 4, 0.00,60.00,Monday
9,16179206.053763988
871,16179206.053763988
1066,17180550.2568507
2,2, 1, 2, 0, 5, 0.00,60.00,Monday
9,16835653.333069557
871,16835653.33306955
1066,18457121.782417794
2,2, 1, 2, 0, 6, 0.00,60.00,Monday
9,17004981.143735835
871,17004981.143735835
1066,15556587.336920295
2,2, 1, 2, 0, 7, 0.00,60.00,Monday
9,21142764.71390551
871,21142764.713905507
1066,129714404.24119865
2,2, 1, 2, 0, 8, 0.00,60.00,Monday
9,23539658.69652781
871,23539658.696527807
1066,137650050.07368759
2,2, 1, 2, 0, 9, 0.00,60.00,Monday
9,35580521.89753943
871,35580521.89753943
1066,130391894.53107776
2,2, 1, 2, 0,10, 0.00,60.00,Monday
9,35580521.89753943
871,35580521.89753943
1066,122412661.92536459
2,2, 1, 2, 0,11, 0.00,60.00,Monday
9,35580521.89753943
871,35580521.89753943
1066,118777418.818461
2,2, 1, 2, 0,12, 0.00,60.00,Monday
9,32844521.897539434
871,32844521.897539434
1066,113922974.64026734
2,2, 1, 2, 0,13, 0.00,60.00,Monday
9,30317532.498362535
871,30317532.49836253
1066,121228940.1885381
2,2, 1, 2, 0,14, 0.00,60.00,Monday
9,32297321.897539434
871,32297321.897539438
1066,109607338.44508836
2,2, 1, 2, 0,15, 0.00,60.00,Monday
9,33938921.89753943
871,33938921.89753943
1066,104193931.44090602
2,2, 1, 2, 0,16, 0.00,60.00,Monday
9,35580521.89753943
871,35580521.89753943
1066,99207603.87523341
2,2, 1, 2, 0,17, 0.00,60.00,Monday
9,35580521.89753943
871,35580521.89753943
1066,96646258.3917366
2,2, 1, 2, 0,18, 0.00,60.00,Monday
9,25936552.67908783
871,25936552.679087834
1066,116520333.6392583
2,2, 1, 2, 0,19, 0.00,60.00,Monday
9,19948327.444222344
871,19948327.44422234
1066,114275650.69514667
2,2, 1, 2, 0,20, 0.00,60.00,Monday
9,13931418.059538957
871,13931418.059538952
1066,0.0
2,2, 1, 2, 0,21, 0.00,60.00,Monday
9,12669894.910823152
871,12669894.910823152
1066,0.0
2,2, 1, 2, 0,22, 0.00,60.00,Monday
9,12968060.08992256
871,12968060.089922559
1066,534107.9822526509
2,2, 1, 2, 0,23, 0.00,60.00,Monday
9,13580886.403076496
871,13580886.403076495
1066,2765429.4815116946
2,2, 1, 2, 0,24, 0.00,60.00,Monday
9,13204618.550314624
871,13204618.550314626
1066,3749474.224188171
2,3, 1, 3, 0, 1, 0.00,60.00,Tuesday
9,15092689.77246726
871,15092689.772467254
1066,2954224.2792234139
2,3, 1, 3, 0, 2, 0.00,60.00,Tuesday
9,15737800.839225412
871,15737800.83922541
1066,3583780.3677836109
2,3, 1, 3, 0, 3, 0.00,60.00,Tuesday
9,15210770.27490331
871,15210770.274903309
1066,5275428.53793142
2,3, 1, 3, 0, 4, 0.00,60.00,Tuesday
9,17005628.65798948
871,17005628.657989477
1066,4759695.611677507
2,3, 1, 3, 0, 5, 0.00,60.00,Tuesday
9,15517985.183132528
871,15517985.183132526
1066,6520376.825685816
2,3, 1, 3, 0, 6, 0.00,60.00,Tuesday
9,17544644.59873282
871,17544644.59873282
1066,6097416.839728718
2,3, 1, 3, 0, 7, 0.00,60.00,Tuesday
9,21142764.71390551
871,21142764.713905507
1066,116642372.94667214
2,3, 1, 3, 0, 8, 0.00,60.00,Tuesday
9,23539658.69652781
871,23539658.696527807
1066,137134064.22006388
2,3, 1, 3, 0, 9, 0.00,60.00,Tuesday
9,35580521.89753943
871,35580521.89753943
1066,123148824.78641558
2,3, 1, 3, 0,10, 0.00,60.00,Tuesday
9,35580521.89753943
871,35580521.89753943
1066,114010404.21798146
2,3, 1, 3, 0,11, 0.00,60.00,Tuesday
9,35580521.89753943
871,35580521.89753943
1066,110749235.70786664
2,3, 1, 3, 0,12, 0.00,60.00,Tuesday
9,32844521.897539434
871,32844521.897539434
1066,103931276.54863052
2,3, 1, 3, 0,13, 0.00,60.00,Tuesday
9,30317532.498362535
871,30317532.49836253
1066,112343449.47199139
2,3, 1, 3, 0,14, 0.00,60.00,Tuesday
9,32297321.897539434
871,32297321.897539438
1066,96976252.91219655
2,3, 1, 3, 0,15, 0.00,60.00,Tuesday
9,33938921.89753943
871,33938921.89753943
1066,94731964.88201325
2,3, 1, 3, 0,16, 0.00,60.00,Tuesday
9,35580521.89753943
871,35580521.89753943
1066,93791338.34903042
2,3, 1, 3, 0,17, 0.00,60.00,Tuesday
9,35580521.89753943
871,35580521.89753943
1066,93739237.89969002
2,3, 1, 3, 0,18, 0.00,60.00,Tuesday
9,25936552.67908783
871,25936552.679087834
1066,115182416.18733485
2,3, 1, 3, 0,19, 0.00,60.00,Tuesday
9,19948327.444222344
871,19948327.444222336
1066,118761100.15221232
2,3, 1, 3, 0,20, 0.00,60.00,Tuesday
9,13931418.059538957
871,13931418.059538952
1066,0.0
2,3, 1, 3, 0,21, 0.00,60.00,Tuesday
9,12669894.910823152
871,12669894.910823152
1066,0.0
2,3, 1, 3, 0,22, 0.00,60.00,Tuesday
9,12669894.910823152
871,12669894.910823152
1066,0.0
2,3, 1, 3, 0,23, 0.00,60.00,Tuesday
9,11969347.00564833
871,11969347.00564833
1066,622937.8312026169
2,3, 1, 3, 0,24, 0.00,60.00,Tuesday
9,13594743.147696682
871,13594743.147696682
1066,4786383.164380327
2,4, 1, 4, 0, 1, 0.00,60.00,Wednesday
9,15827616.457865842
871,15827616.45786584
1066,4113223.1211578727
2,4, 1, 4, 0, 2, 0.00,60.00,Wednesday
9,14803127.974432487
871,14803127.974432487
1066,2480387.3003539496
2,4, 1, 4, 0, 3, 0.00,60.00,Wednesday
9,15483572.635923636
871,15483572.635923632
1066,4342378.284971094
2,4, 1, 4, 0, 4, 0.00,60.00,Wednesday
9,16650393.478922636
871,16650393.478922636
1066,7718445.918755701
2,4, 1, 4, 0, 5, 0.00,60.00,Wednesday
9,15623317.161491219
871,15623317.161491216
1066,8054698.37161452
2,4, 1, 4, 0, 6, 0.00,60.00,Wednesday
9,17462496.422405948
871,17462496.422405945
1066,8333178.385643387
2,4, 1, 4, 0, 7, 0.00,60.00,Wednesday
9,21142764.71390551
871,21142764.713905507
1066,107760158.08730206
2,4, 1, 4, 0, 8, 0.00,60.00,Wednesday
9,23539658.69652781
871,23539658.696527807
1066,124048049.31246081
2,4, 1, 4, 0, 9, 0.00,60.00,Wednesday
9,35580521.89753943
871,35580521.89753943
1066,91386141.27249292
2,4, 1, 4, 0,10, 0.00,60.00,Wednesday
9,35580521.89753943
871,35580521.89753943
1066,81749953.72497133
2,4, 1, 4, 0,11, 0.00,60.00,Wednesday
9,35580521.89753943
871,35580521.89753943
1066,78462337.31711105
2,4, 1, 4, 0,12, 0.00,60.00,Wednesday
9,32844521.897539434
871,32844521.897539434
1066,73005121.45068112
2,4, 1, 4, 0,13, 0.00,60.00,Wednesday
9,30317532.498362535
871,30317532.49836253
1066,87872820.49113
2,4, 1, 4, 0,14, 0.00,60.00,Wednesday
9,32297321.897539434
871,32297321.897539434
1066,67399372.58792979
2,4, 1, 4, 0,15, 0.00,60.00,Wednesday
9,33391721.897539434
871,33391721.89753943
1066,66580102.782293509
2,4, 1, 4, 0,16, 0.00,60.00,Wednesday
9,35580521.89753943
871,35580521.89753943
1066,63303461.948654938
2,4, 1, 4, 0,17, 0.00,60.00,Wednesday
9,35580521.89753943
871,35580521.89753943
1066,61235456.20112568
2,4, 1, 4, 0,18, 0.00,60.00,Wednesday
9,25936552.67908783
871,25936552.679087834
1066,87712480.40381386
2,4, 1, 4, 0,19, 0.00,60.00,Wednesday
9,19948327.444222344
871,19948327.44422234
1066,81912729.19188163
2,4, 1, 4, 0,20, 0.00,60.00,Wednesday
9,13931418.059538957
871,13931418.059538952
1066,0.0
2,4, 1, 4, 0,21, 0.00,60.00,Wednesday
9,12669894.910823152
871,12669894.910823152
1066,0.0
2,4, 1, 4, 0,22, 0.00,60.00,Wednesday
9,12669894.910823152
871,12669894.910823152
1066,0.0
2,4, 1, 4, 0,23, 0.00,60.00,Wednesday
9,11534524.076916654
871,11534524.076916654
1066,0.0
2,4, 1, 4, 0,24, 0.00,60.00,Wednesday
9,11205881.415921549
871,11205881.415921549
1066,0.0
2,5, 1, 5, 0, 1, 0.00,60.00,Thursday
9,13158423.644994012
871,13158423.64499401
1066,0.0
2,5, 1, 5, 0, 2, 0.00,60.00,Thursday
9,13158423.644994012
871,13158423.64499401
1066,0.0
2,5, 1, 5, 0, 3, 0.00,60.00,Thursday
9,13158423.644994012
871,13158423.64499401
1066,0.0
2,5, 1, 5, 0, 4, 0.00,60.00,Thursday
9,13158423.644994012
871,13158423.64499401
1066,0.0
2,5, 1, 5, 0, 5, 0.00,60.00,Thursday
9,13158423.644994012
871,13158423.64499401
1066,0.0
2,5, 1, 5, 0, 6, 0.00,60.00,Thursday
9,13970526.588477325
871,13970526.588477325
1066,0.0
2,5, 1, 5, 0, 7, 0.00,60.00,Thursday
9,21142764.71390551
871,21142764.713905507
1066,94223850.66412841
2,5, 1, 5, 0, 8, 0.00,60.00,Thursday
9,23539658.69652781
871,23539658.696527807
1066,113033211.43117425
2,5, 1, 5, 0, 9, 0.00,60.00,Thursday
9,35580521.89753943
871,35580521.89753943
1066,83210618.22464061
2,5, 1, 5, 0,10, 0.00,60.00,Thursday
9,35580521.89753943
871,35580521.89753943
1066,78949157.99781667
2,5, 1, 5, 0,11, 0.00,60.00,Thursday
9,35580521.89753943
871,35580521.89753943
1066,78093705.9068139
2,5, 1, 5, 0,12, 0.00,60.00,Thursday
9,32297321.897539434
871,32297321.897539434
1066,74914281.72316343
2,5, 1, 5, 0,13, 0.00,60.00,Thursday
9,30317532.498362535
871,30317532.49836253
1066,92408947.90316825
2,5, 1, 5, 0,14, 0.00,60.00,Thursday
9,32297321.897539434
871,32297321.897539434
1066,70658183.05358927
2,5, 1, 5, 0,15, 0.00,60.00,Thursday
9,33391721.897539434
871,33391721.89753943
1066,69815530.66229645
2,5, 1, 5, 0,16, 0.00,60.00,Thursday
9,35580521.89753943
871,35580521.89753943
1066,67324133.99291553
2,5, 1, 5, 0,17, 0.00,60.00,Thursday
9,35580521.89753943
871,35580521.89753943
1066,65003872.29549444
2,5, 1, 5, 0,18, 0.00,60.00,Thursday
9,25936552.67908783
871,25936552.679087834
1066,92500145.6712696
2,5, 1, 5, 0,19, 0.00,60.00,Thursday
9,19948327.444222344
871,19948327.44422234
1066,85587318.6905267
2,5, 1, 5, 0,20, 0.00,60.00,Thursday
9,13931418.059538957
871,13931418.059538952
1066,0.0
2,5, 1, 5, 0,21, 0.00,60.00,Thursday
9,12669894.910823152
871,12669894.910823152
1066,0.0
2,5, 1, 5, 0,22, 0.00,60.00,Thursday
9,12669894.910823152
871,12669894.910823152
1066,0.0
2,5, 1, 5, 0,23, 0.00,60.00,Thursday
9,11534524.076916654
871,11534524.076916654
1066,0.0
2,5, 1, 5, 0,24, 0.00,60.00,Thursday
9,11205881.415921549
871,11205881.415921549
1066,0.0
2,6, 1, 6, 0, 1, 0.00,60.00,Friday
9,13158423.644994012
871,13158423.64499401
1066,0.0
2,6, 1, 6, 0, 2, 0.00,60.00,Friday
9,13158423.644994012
871,13158423.64499401
1066,0.0
2,6, 1, 6, 0, 3, 0.00,60.00,Friday
9,13158423.644994012
871,13158423.64499401
1066,0.0
2,6, 1, 6, 0, 4, 0.00,60.00,Friday
9,13158423.644994012
871,13158423.64499401
1066,0.0
2,6, 1, 6, 0, 5, 0.00,60.00,Friday
9,13158423.644994012
871,13158423.64499401
1066,0.0
2,6, 1, 6, 0, 6, 0.00,60.00,Friday
9,13970526.588477325
871,13970526.588477325
1066,0.0
2,6, 1, 6, 0, 7, 0.00,60.00,Friday
9,21142764.71390551
871,21142764.713905507
1066,96906394.09197425
2,6, 1, 6, 0, 8, 0.00,60.00,Friday
9,23539658.69652781
871,23539658.696527807
1066,117990559.8526516
2,6, 1, 6, 0, 9, 0.00,60.00,Friday
9,35580521.89753943
871,35580521.89753943
1066,88408998.720698
2,6, 1, 6, 0,10, 0.00,60.00,Friday
9,35580521.89753943
871,35580521.89753943
1066,79345404.84813318
2,6, 1, 6, 0,11, 0.00,60.00,Friday
9,35580521.89753943
871,35580521.89753943
1066,74402388.58896575
2,6, 1, 6, 0,12, 0.00,60.00,Friday
9,32297321.897539434
871,32297321.897539434
1066,67726746.10534293
2,6, 1, 6, 0,13, 0.00,60.00,Friday
9,30317532.498362535
871,30317532.49836253
1066,83948297.78636644
2,6, 1, 6, 0,14, 0.00,60.00,Friday
9,32297321.897539434
871,32297321.897539434
1066,63992309.27959357
2,6, 1, 6, 0,15, 0.00,60.00,Friday
9,48184470.929370168
871,48184470.929370168
1066,29802737.110771859
2,6, 1, 6, 0,16, 0.00,60.00,Friday
9,58157564.50611899
871,58157564.506119
1066,7796840.88460985
2,6, 1, 6, 0,17, 0.00,60.00,Friday
9,58133114.07343458
871,58133114.07343458
1066,4945433.557359251
2,6, 1, 6, 0,18, 0.00,60.00,Friday
9,50812385.26632587
871,50812385.26632587
1066,19825514.210668107
2,6, 1, 6, 0,19, 0.00,60.00,Friday
9,45368419.35533965
871,45368419.35533963
1066,5918276.956332269
2,6, 1, 6, 0,20, 0.00,60.00,Friday
9,13931418.059538957
871,13931418.059538952
1066,0.0
2,6, 1, 6, 0,21, 0.00,60.00,Friday
9,12669894.910823152
871,12669894.910823152
1066,0.0
2,6, 1, 6, 0,22, 0.00,60.00,Friday
9,12669894.910823152
871,12669894.910823152
1066,0.0
2,6, 1, 6, 0,23, 0.00,60.00,Friday
9,11534524.076916654
871,11534524.076916654
1066,0.0
2,6, 1, 6, 0,24, 0.00,60.00,Friday
9,11205881.415921549
871,11205881.415921549
1066,0.0
2,7, 1, 7, 0, 1, 0.00,60.00,Saturday
9,10093157.415921549
871,10093157.415921549
1066,0.0
2,7, 1, 7, 0, 2, 0.00,60.00,Saturday
9,10093157.415921549
871,10093157.415921549
1066,0.0
2,7, 1, 7, 0, 3, 0.00,60.00,Saturday
9,10093157.415921549
871,10093157.415921549
1066,0.0
2,7, 1, 7, 0, 4, 0.00,60.00,Saturday
9,10093157.415921549
871,10093157.415921549
1066,0.0
2,7, 1, 7, 0, 5, 0.00,60.00,Saturday
9,10093157.415921549
871,10093157.415921549
1066,0.0
2,7, 1, 7, 0, 6, 0.00,60.00,Saturday
9,10093157.415921549
871,10093157.415921549
1066,0.0
2,7, 1, 7, 0, 7, 0.00,60.00,Saturday
9,11205881.415921549
871,11205881.415921549
1066,0.0
2,7, 1, 7, 0, 8, 0.00,60.00,Saturday
9,11205881.415921549
871,11205881.415921549
1066,0.0
2,7, 1, 7, 0, 9, 0.00,60.00,Saturday
9,11205881.415921549
871,11205881.415921549
1066,0.0
2,7, 1, 7, 0,10, 0.00,60.00,Saturday
9,11205881.415921549
871,11205881.415921549
1066,0.0
2,7, 1, 7, 0,11, 0.00,60.00,Saturday
9,11205881.415921549
871,11205881.415921549
1066,0.0
2,7, 1, 7, 0,12, 0.00,60.00,Saturday
9,7922681.415921549
871,7922681.415921549
1066,0.0
2,7, 1, 7, 0,13, 0.00,60.00,Saturday
9,7922681.415921549
871,7922681.415921549
1066,0.0
2,7, 1, 7, 0,14, 0.00,60.00,Saturday
9,7922681.415921549
871,7922681.415921549
1066,0.0
2,7, 1, 7, 0,15, 0.00,60.00,Saturday
9,8469881.415921549
871,8469881.415921549
1066,0.0
2,7, 1, 7, 0,16, 0.00,60.00,Saturday
9,11603638.788200295
871,11603638.788200295
1066,0.0
2,7, 1, 7, 0,17, 0.00,60.00,Saturday
9,12558050.526533008
871,12558050.526533008
1066,0.0
2,7, 1, 7, 0,18, 0.00,60.00,Saturday
9,13539079.633091938
871,13539079.63309194
1066,0.0
2,7, 1, 7, 0,19, 0.00,60.00,Saturday
9,15340083.594855108
871,15340083.594855106
1066,140863.15109152304
2,7, 1, 7, 0,20, 0.00,60.00,Saturday
9,16301995.609242924
871,16301995.609242924
1066,0.0
2,7, 1, 7, 0,21, 0.00,60.00,Saturday
9,15806983.66930012
871,15806983.669300123
1066,43953.732490199516
2,7, 1, 7, 0,22, 0.00,60.00,Saturday
9,16779943.82178156
871,16779943.82178156
1066,0.0
2,7, 1, 7, 0,23, 0.00,60.00,Saturday
9,15896473.23088881
871,15896473.230888812
1066,16306.568918156529
2,7, 1, 7, 0,24, 0.00,60.00,Saturday
9,16214879.975967125
871,16214879.975967125
1066,3349565.674569608
2,8, 1, 8, 0, 1, 0.00,60.00,Sunday
9,12728068.887207395
871,12728068.887207395
1066,6125876.117150517
2,8, 1, 8, 0, 2, 0.00,60.00,Sunday
9,13352299.379142199
871,13352299.379142199
1066,9350967.33858147
2,8, 1, 8, 0, 3, 0.00,60.00,Sunday
9,13228399.215632434
871,13228399.215632434
1066,7841872.047776729
2,8, 1, 8, 0, 4, 0.00,60.00,Sunday
9,14050152.92570313
871,14050152.92570313
1066,9709628.091840528
2,8, 1, 8, 0, 5, 0.00,60.00,Sunday
9,13161038.2526573
871,13161038.2526573
1066,7694548.671580884
2,8, 1, 8, 0, 6, 0.00,60.00,Sunday
9,13352299.379142199
871,13352299.379142199
1066,9332423.088379141
2,8, 1, 8, 0, 7, 0.00,60.00,Sunday
9,13954934.709012095
871,13954934.709012095
1066,8769527.830802205
2,8, 1, 8, 0, 8, 0.00,60.00,Sunday
9,15071711.323651419
871,15071711.323651419
1066,11479591.432947284
2,8, 1, 8, 0, 9, 0.00,60.00,Sunday
9,14209379.366277546
871,14209379.366277546
1066,11990156.636960205
2,8, 1, 8, 0,10, 0.00,60.00,Sunday
9,15067592.747769602
871,15067592.747769602
1066,13669489.638554922
2,8, 1, 8, 0,11, 0.00,60.00,Sunday
9,14175001.545677375
871,14175001.545677375
1066,12131963.001500955
2,8, 1, 8, 0,12, 0.00,60.00,Sunday
9,11173922.047104907
871,11173922.047104907
1066,16657050.702811923
2,8, 1, 8, 0,13, 0.00,60.00,Sunday
9,11016238.406605315
871,11016238.406605317
1066,13708965.380329607
2,8, 1, 8, 0,14, 0.00,60.00,Sunday
9,11764799.655779109
871,11764799.655779109
1066,14040607.364518114
2,8, 1, 8, 0,15, 0.00,60.00,Sunday
9,11427813.399276993
871,11427813.399276995
1066,12212478.32425213
2,8, 1, 8, 0,16, 0.00,60.00,Sunday
9,14647624.685056474
871,14647624.685056474
1066,15021083.10998246
2,8, 1, 8, 0,17, 0.00,60.00,Sunday
9,14163813.399276993
871,14163813.399276993
1066,11534515.008867652
2,8, 1, 8, 0,18, 0.00,60.00,Sunday
9,15067592.747769602
871,15067592.747769602
1066,15061286.114441926
2,8, 1, 8, 0,19, 0.00,60.00,Sunday
9,13743845.336563863
871,13743845.336563863
1066,13780066.377842645
2,8, 1, 8, 0,20, 0.00,60.00,Sunday
9,15067592.747769602
871,15067592.747769602
1066,14347977.577802267
2,8, 1, 8, 0,21, 0.00,60.00,Sunday
9,13817967.708864909
871,13817967.708864909
1066,14487465.344565416
2,8, 1, 8, 0,22, 0.00,60.00,Sunday
9,14602461.684160755
871,14602461.68416075
1066,16843719.919121706
2,8, 1, 8, 0,23, 0.00,60.00,Sunday
9,14163813.399276993
871,14163813.399276993
1066,12793035.109176042
2,8, 1, 8, 0,24, 0.00,60.00,Sunday
9,15121234.90595204
871,15121234.90595204
1066,17329171.36544512
2,9, 1, 9, 0, 1, 0.00,60.00,Monday
9,16179180.494197287
871,16179180.494197287
1066,14001866.076719489
2,9, 1, 9, 0, 2, 0.00,60.00,Monday
9,16909539.69219071
871,16909539.69219071
1066,15177740.867942164
2,9, 1, 9, 0, 3, 0.00,60.00,Monday
9,16116355.628349457
871,16116355.628349457
1066,12046152.595193565
2,9, 1, 9, 0, 4, 0.00,60.00,Monday
9,16600166.914128935
871,16600166.914128935
1066,16177509.334787965
2,9, 1, 9, 0, 5, 0.00,60.00,Monday
9,15696387.565636326
871,15696387.565636326
1066,14812119.15568641
2,9, 1, 9, 0, 6, 0.00,60.00,Monday
9,17412269.85761225
871,17412269.857612246
1066,15783337.952279345
2,9, 1, 9, 0, 7, 0.00,60.00,Monday
9,21142764.71390551
871,21142764.713905507
1066,123870174.90566793
2,9, 1, 9, 0, 8, 0.00,60.00,Monday
9,23539658.69652781
871,23539658.696527807
1066,138390688.61345757
2,9, 1, 9, 0, 9, 0.00,60.00,Monday
9,35580521.89753943
871,35580521.89753943
1066,125413890.04301134
2,9, 1, 9, 0,10, 0.00,60.00,Monday
9,35580521.89753943
871,35580521.89753943
1066,112965296.75057027
2,9, 1, 9, 0,11, 0.00,60.00,Monday
9,35033321.89753943
871,35033321.89753943
1066,108765377.60665512
2,9, 1, 9, 0,12, 0.00,60.00,Monday
9,32297321.897539434
871,32297321.897539434
1066,102168344.82761085
2,9, 1, 9, 0,13, 0.00,60.00,Monday
9,30317532.498362535
871,30317532.49836253
1066,112082435.23441768
2,9, 1, 9, 0,14, 0.00,60.00,Monday
9,32297321.897539434
871,32297321.897539434
1066,95938502.93300063
2,9, 1, 9, 0,15, 0.00,60.00,Monday
9,32844521.897539434
871,32844521.89753943
1066,93323798.04220048
2,9, 1, 9, 0,16, 0.00,60.00,Monday
9,35580521.89753943
871,35580521.89753943
1066,90004458.27955348
2,9, 1, 9, 0,17, 0.00,60.00,Monday
9,35580521.89753943
871,35580521.89753943
1066,89629436.65402462
2,9, 1, 9, 0,18, 0.00,60.00,Monday
9,25936552.67908783
871,25936552.679087834
1066,111026668.35803801
2,9, 1, 9, 0,19, 0.00,60.00,Monday
9,19948327.444222344
871,19948327.44422234
1066,110170628.98331419
2,9, 1, 9, 0,20, 0.00,60.00,Monday
9,13931418.059538957
871,13931418.059538952
1066,0.0
2,9, 1, 9, 0,21, 0.00,60.00,Monday
9,12669894.910823152
871,12669894.910823152
1066,0.0
2,9, 1, 9, 0,22, 0.00,60.00,Monday
9,12669894.910823152
871,12669894.910823152
1066,0.0
2,9, 1, 9, 0,23, 0.00,60.00,Monday
9,11704556.735552036
871,11704556.735552036
1066,484037.211727148
2,9, 1, 9, 0,24, 0.00,60.00,Monday
9,14445668.002732344
871,14445668.00273234
1066,6541364.66895894
2,10, 1,10, 0, 1, 0.00,60.00,Tuesday
9,15711204.055955299
871,15711204.055955299
1066,5899064.843637795
2,10, 1,10, 0, 2, 0.00,60.00,Tuesday
9,16404379.550880224
871,16404379.550880222
1066,6655727.790955603
2,10, 1,10, 0, 3, 0.00,60.00,Tuesday
9,15793352.232282173
871,15793352.232282173
1066,6036042.100688171
2,10, 1,10, 0, 4, 0.00,60.00,Tuesday
9,16862957.132621159
871,16862957.132621159
1066,9121259.539325722
2,10, 1,10, 0, 5, 0.00,60.00,Tuesday
9,16047778.22378535
871,16047778.22378535
1066,9601165.261329683
2,10, 1,10, 0, 6, 0.00,60.00,Tuesday
9,17786571.198927877
871,17786571.19892787
1066,11347823.91928539
2,10, 1,10, 0, 7, 0.00,60.00,Tuesday
9,21142764.71390551
871,21142764.713905507
1066,113973964.3959776
2,10, 1,10, 0, 8, 0.00,60.00,Tuesday
9,23539658.69652781
871,23539658.696527807
1066,135859833.1112866
2,10, 1,10, 0, 9, 0.00,60.00,Tuesday
9,35580521.89753943
871,35580521.89753943
1066,114109518.46299124
2,10, 1,10, 0,10, 0.00,60.00,Tuesday
9,35580521.89753943
871,35580521.89753943
1066,104148109.45421925
2,10, 1,10, 0,11, 0.00,60.00,Tuesday
9,35009170.97079538
871,35009170.97079537
1066,100358021.77435917
2,10, 1,10, 0,12, 0.00,60.00,Tuesday
9,31950906.350250417
871,31950906.35025041
1066,93265557.22635949
2,10, 1,10, 0,13, 0.00,60.00,Tuesday
9,30246551.50536558
871,30246551.505365574
1066,107029880.46598956
2,10, 1,10, 0,14, 0.00,60.00,Tuesday
9,32179655.408775968
871,32179655.408775964
1066,88729262.5889751
2,10, 1,10, 0,15, 0.00,60.00,Tuesday
9,32297321.897539434
871,32297321.897539434
1066,86475630.79609512
2,10, 1,10, 0,16, 0.00,60.00,Tuesday
9,35580521.89753943
871,35580521.89753943
1066,86059225.25567197
2,10, 1,10, 0,17, 0.00,60.00,Tuesday
9,35580521.89753943
871,35580521.89753943
1066,86495183.9319679
2,10, 1,10, 0,18, 0.00,60.00,Tuesday
9,25936552.67908783
871,25936552.679087834
1066,109342129.7291587
2,10, 1,10, 0,19, 0.00,60.00,Tuesday
9,19948327.444222344
871,19948327.444222336
1066,111074721.72171457
2,10, 1,10, 0,20, 0.00,60.00,Tuesday
9,13931418.059538957
871,13931418.059538952
1066,0.0
2,10, 1,10, 0,21, 0.00,60.00,Tuesday
9,12669894.910823152
871,12669894.910823152
1066,0.0
2,10, 1,10, 0,22, 0.00,60.00,Tuesday
9,12669894.910823152
871,12669894.910823152
1066,0.0
2,10, 1,10, 0,23, 0.00,60.00,Tuesday
9,11534524.076916654
871,11534524.076916654
1066,0.0
2,10, 1,10, 0,24, 0.00,60.00,Tuesday
9,11205881.415921549
871,11205881.415921549
1066,0.0
2,11, 1,11, 0, 1, 0.00,60.00,Wednesday
9,13158423.644994012
871,13158423.64499401
1066,0.0
2,11, 1,11, 0, 2, 0.00,60.00,Wednesday
9,15054491.199090098
871,15054491.199090098
1066,3227243.419891086
2,11, 1,11, 0, 3, 0.00,60.00,Wednesday
9,15513567.28113068
871,15513567.281130679
1066,5657270.153330408
2,11, 1,11, 0, 4, 0.00,60.00,Wednesday
9,15793352.232282173
871,15793352.232282173
1066,4238768.171143094
2,11, 1,11, 0, 5, 0.00,60.00,Wednesday
9,15603961.785081365
871,15603961.78508136
1066,6777491.54606916
2,11, 1,11, 0, 6, 0.00,60.00,Wednesday
9,17254762.64624504
871,17254762.646245034
1066,5883804.769949759
2,11, 1,11, 0, 7, 0.00,60.00,Wednesday
9,21142764.71390551
871,21142764.713905507
1066,110878988.81520492
2,11, 1,11, 0, 8, 0.00,60.00,Wednesday
9,23539658.69652781
871,23539658.696527807
1066,138470067.5295434
2,11, 1,11, 0, 9, 0.00,60.00,Wednesday
9,35580521.89753943
871,35580521.89753943
1066,123207772.94107218
2,11, 1,11, 0,10, 0.00,60.00,Wednesday
9,35580521.89753943
871,35580521.89753943
1066,118364085.47492668
2,11, 1,11, 0,11, 0.00,60.00,Wednesday
9,35033321.89753943
871,35033321.89753943
1066,116726184.54195833
2,11, 1,11, 0,12, 0.00,60.00,Wednesday
9,32057922.45167119
871,32057922.451671184
1066,112405779.4371177
2,11, 1,11, 0,13, 0.00,60.00,Wednesday
9,30062735.70852236
871,30062735.708522358
1066,119674630.66956775
2,11, 1,11, 0,14, 0.00,60.00,Wednesday
9,32221696.154255645
871,32221696.154255645
1066,107739743.53268366
2,11, 1,11, 0,15, 0.00,60.00,Wednesday
9,32297321.897539434
871,32297321.897539434
1066,108374071.76124124
2,11, 1,11, 0,16, 0.00,60.00,Wednesday
9,35580521.89753943
871,35580521.89753943
1066,106787644.11758454
2,11, 1,11, 0,17, 0.00,60.00,Wednesday
9,35580521.89753943
871,35580521.89753943
1066,104784351.71984883
2,11, 1,11, 0,18, 0.00,60.00,Wednesday
9,25936552.67908783
871,25936552.679087834
1066,122519630.1736418
2,11, 1,11, 0,19, 0.00,60.00,Wednesday
9,19948327.444222344
871,19948327.444222336
1066,128626213.62909337
2,11, 1,11, 0,20, 0.00,60.00,Wednesday
9,13931418.059538957
871,13931418.059538952
1066,0.0
2,11, 1,11, 0,21, 0.00,60.00,Wednesday
9,12669894.910823152
871,12669894.910823152
1066,0.0
2,11, 1,11, 0,22, 0.00,60.00,Wednesday
9,12669894.910823152
871,12669894.910823152
1066,0.0
2,11, 1,11, 0,23, 0.00,60.00,Wednesday
9,14037694.151396368
871,14037694.151396364
1066,5978859.471834881
2,11, 1,11, 0,24, 0.00,60.00,Wednesday
9,14119837.210923236
871,14119837.210923234
1066,9763035.51147725
2,12, 1,12, 0, 1, 0.00,60.00,Thursday
9,16931727.483571389
871,16931727.483571385
1066,12037196.962183183
2,12, 1,12, 0, 2, 0.00,60.00,Thursday
9,15825894.422728453
871,15825894.422728453
1066,10592261.831751762
2,12, 1,12, 0, 3, 0.00,60.00,Thursday
9,16587600.67900562
871,16587600.679005618
1066,11526863.293962539
2,12, 1,12, 0, 4, 0.00,60.00,Thursday
9,15999173.102397349
871,15999173.102397349
1066,14083748.570246555
2,12, 1,12, 0, 5, 0.00,60.00,Thursday
9,16750234.85887912
871,16750234.85887912
1066,17118904.601194696
2,12, 1,12, 0, 6, 0.00,60.00,Thursday
9,16593637.441133414
871,16593637.441133408
1066,13367131.039573804
2,12, 1,12, 0, 7, 0.00,60.00,Thursday
9,21142764.71390551
871,21142764.713905507
1066,116968032.05719881
2,12, 1,12, 0, 8, 0.00,60.00,Thursday
9,23539658.69652781
871,23539658.69652781
1066,139483162.49528323
2,12, 1,12, 0, 9, 0.00,60.00,Thursday
9,35580521.89753943
871,35580521.89753943
1066,138856178.73485584
2,12, 1,12, 0,10, 0.00,60.00,Thursday
9,35580521.89753943
871,35580521.89753943
1066,134210353.89608479
2,12, 1,12, 0,11, 0.00,60.00,Thursday
9,35033321.89753943
871,35033321.89753943
1066,130290495.60006197
2,12, 1,12, 0,12, 0.00,60.00,Thursday
9,32004414.400960804
871,32004414.400960797
1066,123524378.73195745
2,12, 1,12, 0,13, 0.00,60.00,Thursday
9,30062735.70852236
871,30062735.708522358
1066,125919869.72896126
2,12, 1,12, 0,14, 0.00,60.00,Thursday
9,32146070.410971855
871,32146070.41097185
1066,117449695.65266288
2,12, 1,12, 0,15, 0.00,60.00,Thursday
9,32297321.897539434
871,32297321.897539434
1066,115259470.69295109
2,12, 1,12, 0,16, 0.00,60.00,Thursday
9,35580521.89753943
871,35580521.89753943
1066,112746183.95922959
2,12, 1,12, 0,17, 0.00,60.00,Thursday
9,35580521.89753943
871,35580521.89753943
1066,110777777.52983786
2,12, 1,12, 0,18, 0.00,60.00,Thursday
9,25936552.67908783
871,25936552.679087834
1066,126821012.10695613
2,12, 1,12, 0,19, 0.00,60.00,Thursday
9,19948327.444222344
871,19948327.444222336
1066,131443996.97714073
2,12, 1,12, 0,20, 0.00,60.00,Thursday
9,13931418.059538957
871,13931418.059538952
1066,0.0
2,12, 1,12, 0,21, 0.00,60.00,Thursday
9,12669894.910823152
871,12669894.910823152
1066,0.0
2,12, 1,12, 0,22, 0.00,60.00,Thursday
9,13894556.53996631
871,13894556.539966308
1066,1689633.8480979675
2,12, 1,12, 0,23, 0.00,60.00,Thursday
9,14086507.30440997
871,14086507.30440997
1066,6593225.522249038
2,12, 1,12, 0,24, 0.00,60.00,Thursday
9,14635058.449933153
871,14635058.449933153
1066,10193616.153348405
2,13, 1,13, 0, 1, 0.00,60.00,Friday
9,15686109.961408237
871,15686109.961408236
1066,8530777.086949412
2,13, 1,13, 0, 2, 0.00,60.00,Friday
9,16587600.67900562
871,16587600.679005618
1066,10685938.80162913
2,13, 1,13, 0, 3, 0.00,60.00,Friday
9,16254895.964194492
871,16254895.964194492
1066,8586310.188293118
2,13, 1,13, 0, 4, 0.00,60.00,Friday
9,16857000.909929564
871,16857000.90992956
1066,11786605.90804795
2,13, 1,13, 0, 5, 0.00,60.00,Friday