Program Version,EnergyPlus, Version 9.0.1-bb7ca4f0da, YMD=2024.07.08 16:59
1,5,Environment Title[],Latitude[deg],Longitude[deg],Time Zone[],Elevation[m]
2,8,Day of Simulation[],Month[],Day of Month[],DST Indicator[1=yes 0=no],Hour[],StartMinute[],EndMinute[],DayType
3,5,Cumulative Day of Simulation[],Month[],Day of Month[],DST Indicator[1=yes 0=no],DayType  ! When Daily Meters Requested
4,2,Cumulative Days of Simulation[],Month[]  ! When Monthly Meters Requested
5,1,Cumulative Days of Simulation[] ! When Run Period Meters Requested
6,1,Calendar Year of Simulation[] ! When Annual Meters Requested
9,1,Electricity:Facility [J] !Hourly
871,1,ElectricityNet:Facility [J] !Hourly
1066,1,Gas:Facility [J] !Hourly
End of Data Dictionary
1,RUNPERIOD 1,  47.47,-122.32,  -8.00, 122.00
2,1, 1, 1, 0, 1, 0.00,60.00,Holiday
9,10792141.567902055
871,10792141.567902055
1066,0.0
2,1, 1, 1, 0, 2, 0.00,60.00,Holiday
9,11148213.974953188
871,11148213.974953188
1066,0.0
2,1, 1, 1, 0, 3, 0.00,60.00,Holiday
9,11063026.729087469
871,11063026.729087469
1066,0.0
2,1, 1, 1, 0, 4, 0.00,60.00,Holiday
9,10846385.80781072
871,10846385.80781072
1066,0.0
2,1, 1, 1, 0, 5, 0.00,60.00,Holiday
9,10985810.708132748
871,10985810.708132748
1066,0.0
2,1, 1, 1, 0, 6, 0.00,60.00,Holiday
9,10786424.751831402
871,10786424.751831402
1066,0.0
2,1, 1, 1, 0, 7, 0.00,60.00,Holiday
9,11702900.092087472
871,11702900.092087472
1066,0.0
2,1, 1, 1, 0, 8, 0.00,60.00,Holiday
9,11783392.19842098
871,11783392.198420978
1066,0.0
2,1, 1, 1, 0, 9, 0.00,60.00,Holiday
9,8389204.262032677
871,8389204.262032677
1066,0.0
2,1, 1, 1, 0,10, 0.00,60.00,Holiday
9,7940014.999246269
871,7940014.999246268
1066,0.0
2,1, 1, 1, 0,11, 0.00,60.00,Holiday
9,7136811.436265161
871,7136811.43626516
1066,0.0
2,1, 1, 1, 0,12, 0.00,60.00,Holiday
9,6953769.23890112
871,6953769.23890112
1066,0.0
2,1, 1, 1, 0,13, 0.00,60.00,Holiday
9,7272495.368297309
871,7272495.368297309
1066,0.0
2,1, 1, 1, 0,14, 0.00,60.00,Holiday
9,7615565.435964592
871,7615565.435964591
1066,0.0
2,1, 1, 1, 0,15, 0.00,60.00,Holiday
9,7598708.65389004
871,7598708.653890039
1066,0.0
2,1, 1, 1, 0,16, 0.00,60.00,Holiday
9,7806825.3557653049
871,7806825.355765304
1066,0.0
2,1, 1, 1, 0,17, 0.00,60.00,Holiday
9,10238226.682678739
871,10238226.682678739
1066,0.0
2,1, 1, 1, 0,18, 0.00,60.00,Holiday
9,11793844.66421623
871,11793844.66421623
1066,0.0
2,1, 1, 1, 0,19, 0.00,60.00,Holiday
9,11517712.498029519
871,11517712.498029519
1066,0.0
2,1, 1, 1, 0,20, 0.00,60.00,Holiday
9,11723401.346456552
871,11723401.34645655
1066,0.0
2,1, 1, 1, 0,21, 0.00,60.00,Holiday
9,11976119.78758381
871,11976119.78758381
1066,0.0
2,1, 1, 1, 0,22, 0.00,60.00,Holiday
9,11939400.72294881
871,11939400.72294881
1066,0.0
2,1, 1, 1, 0,23, 0.00,60.00,Holiday
9,12168671.674519659
871,12168671.674519659
1066,0.0
2,1, 1, 1, 0,24, 0.00,60.00,Holiday
9,12084082.495104062
871,12084082.495104062
1066,0.0
2,2, 1, 2, 0, 1, 0.00,60.00,Monday
9,13244379.754411338
871,13244379.754411338
1066,0.0
2,2, 1, 2, 0, 2, 0.00,60.00,Monday
9,13247765.630667838
871,13247765.630667838
1066,0.0
2,2, 1, 2, 0, 3, 0.00,60.00,Monday
9,13165201.390597323
871,13165201.390597323
1066,0.0
2,2, 1, 2, 0, 4, 0.00,60.00,Monday
9,13121073.958972864
871,13121073.958972864
1066,0.0
2,2, 1, 2, 0, 5, 0.00,60.00,Monday
9,12948520.377437104
871,12948520.377437104
1066,0.0
2,2, 1, 2, 0, 6, 0.00,60.00,Monday
9,13722087.544939904
871,13722087.544939898
1066,0.0
2,2, 1, 2, 0, 7, 0.00,60.00,Monday
9,43134244.79535368
871,43134244.79535368
1066,0.0
2,2, 1, 2, 0, 8, 0.00,60.00,Monday
9,44360398.168763238
871,44360398.168763238
1066,0.0
2,2, 1, 2, 0, 9, 0.00,60.00,Monday
9,47544323.0670602
871,47544323.06706021
1066,0.0
2,2, 1, 2, 0,10, 0.00,60.00,Monday
9,44799637.557614069
871,44799637.557614069
1066,0.0
2,2, 1, 2, 0,11, 0.00,60.00,Monday
9,42208790.78603401
871,42208790.78603401
1066,0.0
2,2, 1, 2, 0,12, 0.00,60.00,Monday
9,39694029.443926509
871,39694029.4439265
1066,0.0
2,2, 1, 2, 0,13, 0.00,60.00,Monday
9,40017012.396030988
871,40017012.396030988
1066,0.0
2,2, 1, 2, 0,14, 0.00,60.00,Monday
9,38935660.06330005
871,38935660.06330005
1066,0.0
2,2, 1, 2, 0,15, 0.00,60.00,Monday
9,38510152.84107625
871,38510152.84107625
1066,0.0
2,2, 1, 2, 0,16, 0.00,60.00,Monday
9,38094540.82390774
871,38094540.82390774
1066,0.0
2,2, 1, 2, 0,17, 0.00,60.00,Monday
9,39708745.56815148
871,39708745.56815149
1066,0.0
2,2, 1, 2, 0,18, 0.00,60.00,Monday
9,35133850.05690698
871,35133850.05690698
1066,0.0
2,2, 1, 2, 0,19, 0.00,60.00,Monday
9,29685243.53601516
871,29685243.536015158
1066,0.0
2,2, 1, 2, 0,20, 0.00,60.00,Monday
9,13031418.059538959
871,13031418.059538955
1066,0.0
2,2, 1, 2, 0,21, 0.00,60.00,Monday
9,11769894.910823154
871,11769894.910823152
1066,0.0
2,2, 1, 2, 0,22, 0.00,60.00,Monday
9,11769894.910823154
871,11769894.910823152
1066,0.0
2,2, 1, 2, 0,23, 0.00,60.00,Monday
9,10634524.076916654
871,10634524.076916654
1066,0.0
2,2, 1, 2, 0,24, 0.00,60.00,Monday
9,10305881.415921547
871,10305881.415921547
1066,0.0
2,3, 1, 3, 0, 1, 0.00,60.00,Tuesday
9,12258423.644994013
871,12258423.644994013
1066,0.0
2,3, 1, 3, 0, 2, 0.00,60.00,Tuesday
9,12258423.644994013
871,12258423.644994013
1066,0.0
2,3, 1, 3, 0, 3, 0.00,60.00,Tuesday
9,12258423.644994013
871,12258423.644994013
1066,0.0
2,3, 1, 3, 0, 4, 0.00,60.00,Tuesday
9,12258423.644994013
871,12258423.644994013
1066,0.0
2,3, 1, 3, 0, 5, 0.00,60.00,Tuesday
9,12258423.644994013
871,12258423.644994013
1066,0.0
2,3, 1, 3, 0, 6, 0.00,60.00,Tuesday
9,13070526.588477327
871,13070526.588477323
1066,0.0
2,3, 1, 3, 0, 7, 0.00,60.00,Tuesday
9,33416493.486710408
871,33416493.486710408
1066,0.0
2,3, 1, 3, 0, 8, 0.00,60.00,Tuesday
9,36224380.56469027
871,36224380.56469027
1066,0.0
2,3, 1, 3, 0, 9, 0.00,60.00,Tuesday
9,38294302.376505959
871,38294302.376505959
1066,0.0
2,3, 1, 3, 0,10, 0.00,60.00,Tuesday
9,35996223.950001377
871,35996223.95000137
1066,0.0
2,3, 1, 3, 0,11, 0.00,60.00,Tuesday
9,33912731.677417
871,33912731.677417
1066,0.0
2,3, 1, 3, 0,12, 0.00,60.00,Tuesday
9,33596714.965481508
871,33596714.965481508
1066,0.0
2,3, 1, 3, 0,13, 0.00,60.00,Tuesday
9,33085056.081607924
871,33085056.081607924
1066,0.0
2,3, 1, 3, 0,14, 0.00,60.00,Tuesday
9,32207715.52674664
871,32207715.526746639
1066,0.0
2,3, 1, 3, 0,15, 0.00,60.00,Tuesday
9,33330881.515060918
871,33330881.51506092
1066,0.0
2,3, 1, 3, 0,16, 0.00,60.00,Tuesday
9,33275466.08145893
871,33275466.081458935
1066,0.0
2,3, 1, 3, 0,17, 0.00,60.00,Tuesday
9,35640141.829953189
871,35640141.82995319
1066,0.0
2,3, 1, 3, 0,18, 0.00,60.00,Tuesday
9,31859630.481334397
871,31859630.481334393
1066,0.0
2,3, 1, 3, 0,19, 0.00,60.00,Tuesday
9,26819652.734602177
871,26819652.73460217
1066,0.0
2,3, 1, 3, 0,20, 0.00,60.00,Tuesday
9,13031418.059538959
871,13031418.059538955
1066,0.0
2,3, 1, 3, 0,21, 0.00,60.00,Tuesday
9,11769894.910823154
871,11769894.910823152
1066,0.0
2,3, 1, 3, 0,22, 0.00,60.00,Tuesday
9,11769894.910823154
871,11769894.910823152
1066,0.0
2,3, 1, 3, 0,23, 0.00,60.00,Tuesday
9,10634524.076916654
871,10634524.076916654
1066,0.0
2,3, 1, 3, 0,24, 0.00,60.00,Tuesday
9,10305881.415921547
871,10305881.415921547
1066,0.0
2,4, 1, 4, 0, 1, 0.00,60.00,Wednesday
9,12258423.644994013
871,12258423.644994013
1066,0.0
2,4, 1, 4, 0, 2, 0.00,60.00,Wednesday
9,12258423.644994013
871,12258423.644994013
1066,0.0
2,4, 1, 4, 0, 3, 0.00,60.00,Wednesday
9,12258423.644994013
871,12258423.644994013
1066,0.0
2,4, 1, 4, 0, 4, 0.00,60.00,Wednesday
9,12258423.644994013
871,12258423.644994013
1066,0.0
2,4, 1, 4, 0, 5, 0.00,60.00,Wednesday
9,12258423.644994013
871,12258423.644994013
1066,0.0
2,4, 1, 4, 0, 6, 0.00,60.00,Wednesday
9,13070526.588477327
871,13070526.588477323
1066,0.0
2,4, 1, 4, 0, 7, 0.00,60.00,Wednesday
9,29241400.007434183
871,29241400.007434176
1066,0.0
2,4, 1, 4, 0, 8, 0.00,60.00,Wednesday
9,34018526.34333839
871,34018526.34333839
1066,0.0
2,4, 1, 4, 0, 9, 0.00,60.00,Wednesday
9,36324329.204849269
871,36324329.20484927
1066,0.0
2,4, 1, 4, 0,10, 0.00,60.00,Wednesday
9,35279792.1630677
871,35279792.163067709
1066,0.0
2,4, 1, 4, 0,11, 0.00,60.00,Wednesday
9,33956690.72805909
871,33956690.72805909
1066,0.0
2,4, 1, 4, 0,12, 0.00,60.00,Wednesday
9,32643804.581456216
871,32643804.581456216
1066,0.0
2,4, 1, 4, 0,13, 0.00,60.00,Wednesday
9,32559685.194319555
871,32559685.19431955
1066,0.0
2,4, 1, 4, 0,14, 0.00,60.00,Wednesday
9,31517819.9443341
871,31517819.9443341
1066,0.0
2,4, 1, 4, 0,15, 0.00,60.00,Wednesday
9,31518602.40211298
871,31518602.40211298
1066,0.0
2,4, 1, 4, 0,16, 0.00,60.00,Wednesday
9,31839741.51516633
871,31839741.51516633
1066,0.0
2,4, 1, 4, 0,17, 0.00,60.00,Wednesday
9,34313996.70331203
871,34313996.70331205
1066,0.0
2,4, 1, 4, 0,18, 0.00,60.00,Wednesday
9,30274356.379323085
871,30274356.379323085
1066,0.0
2,4, 1, 4, 0,19, 0.00,60.00,Wednesday
9,25774310.34070229
871,25774310.340702289
1066,0.0
2,4, 1, 4, 0,20, 0.00,60.00,Wednesday
9,13031418.059538959
871,13031418.059538955
1066,0.0
2,4, 1, 4, 0,21, 0.00,60.00,Wednesday
9,11769894.910823154
871,11769894.910823152
1066,0.0
2,4, 1, 4, 0,22, 0.00,60.00,Wednesday
9,11769894.910823154
871,11769894.910823152
1066,0.0
2,4, 1, 4, 0,23, 0.00,60.00,Wednesday
9,11084524.076916654
871,11084524.076916654
1066,0.0
2,4, 1, 4, 0,24, 0.00,60.00,Wednesday
9,11205881.415921547
871,11205881.415921547
1066,0.0
2,5, 1, 5, 0, 1, 0.00,60.00,Thursday
9,13158423.644994015
871,13158423.644994013
1066,0.0
2,5, 1, 5, 0, 2, 0.00,60.00,Thursday
9,13158423.644994015
871,13158423.644994013
1066,0.0
2,5, 1, 5, 0, 3, 0.00,60.00,Thursday
9,13158423.644994015
871,13158423.644994013
1066,0.0
2,5, 1, 5, 0, 4, 0.00,60.00,Thursday
9,13158423.644994015
871,13158423.644994013
1066,0.0
2,5, 1, 5, 0, 5, 0.00,60.00,Thursday
9,13158423.644994015
871,13158423.644994013
1066,0.0
2,5, 1, 5, 0, 6, 0.00,60.00,Thursday
9,13970526.588477327
871,13970526.588477327
1066,0.0
2,5, 1, 5, 0, 7, 0.00,60.00,Thursday
9,35601670.07198881
871,35601670.0719888
1066,6269062.046981119
2,5, 1, 5, 0, 8, 0.00,60.00,Thursday
9,43278038.42417927
871,43278038.42417927
1066,6111313.867176573
2,5, 1, 5, 0, 9, 0.00,60.00,Thursday
9,41640020.720334228
871,41640020.720334228
1066,0.0
2,5, 1, 5, 0,10, 0.00,60.00,Thursday
9,36523413.04020166
871,36523413.040201667
1066,0.0
2,5, 1, 5, 0,11, 0.00,60.00,Thursday
9,34462784.2197325
871,34462784.2197325
1066,0.0
2,5, 1, 5, 0,12, 0.00,60.00,Thursday
9,34027514.45046485
871,34027514.45046485
1066,0.0
2,5, 1, 5, 0,13, 0.00,60.00,Thursday
9,34574234.95058419
871,34574234.95058418
1066,0.0
2,5, 1, 5, 0,14, 0.00,60.00,Thursday
9,31875891.759375968
871,31875891.759375968
1066,0.0
2,5, 1, 5, 0,15, 0.00,60.00,Thursday
9,31093752.463333697
871,31093752.463333697
1066,0.0
2,5, 1, 5, 0,16, 0.00,60.00,Thursday
9,30523929.39580913
871,30523929.395809134
1066,0.0
2,5, 1, 5, 0,17, 0.00,60.00,Thursday
9,33822949.85846933
871,33822949.85846934
1066,0.0
2,5, 1, 5, 0,18, 0.00,60.00,Thursday
9,31111801.725314287
871,31111801.725314283
1066,0.0
2,5, 1, 5, 0,19, 0.00,60.00,Thursday
9,26677373.436158066
871,26677373.43615806
1066,0.0
2,5, 1, 5, 0,20, 0.00,60.00,Thursday
9,13931418.059538959
871,13931418.059538955
1066,0.0
2,5, 1, 5, 0,21, 0.00,60.00,Thursday
9,12669894.910823152
871,12669894.910823152
1066,0.0
2,5, 1, 5, 0,22, 0.00,60.00,Thursday
9,12669894.910823152
871,12669894.910823152
1066,0.0
2,5, 1, 5, 0,23, 0.00,60.00,Thursday
9,11534524.076916658
871,11534524.076916658
1066,0.0
2,5, 1, 5, 0,24, 0.00,60.00,Thursday
9,11205881.415921547
871,11205881.415921547
1066,0.0
2,6, 1, 6, 0, 1, 0.00,60.00,Friday
9,13158423.644994015
871,13158423.644994013
1066,0.0
2,6, 1, 6, 0, 2, 0.00,60.00,Friday
9,13158423.644994015
871,13158423.644994013
1066,0.0
2,6, 1, 6, 0, 3, 0.00,60.00,Friday
9,13158423.644994015
871,13158423.644994013
1066,0.0
2,6, 1, 6, 0, 4, 0.00,60.00,Friday
9,13158423.644994015
871,13158423.644994013
1066,0.0
2,6, 1, 6, 0, 5, 0.00,60.00,Friday
9,13158423.644994015
871,13158423.644994013
1066,0.0
2,6, 1, 6, 0, 6, 0.00,60.00,Friday
9,13970526.588477327
871,13970526.588477327
1066,0.0
2,6, 1, 6, 0, 7, 0.00,60.00,Friday
9,34810469.16307397
871,34810469.163073968
1066,6397994.770283537
2,6, 1, 6, 0, 8, 0.00,60.00,Friday
9,42786538.24998341
871,42786538.24998341
1066,10703332.930146143
2,6, 1, 6, 0, 9, 0.00,60.00,Friday
9,43358011.32760435
871,43358011.32760435
1066,0.0
2,6, 1, 6, 0,10, 0.00,60.00,Friday
9,39356353.59848265
871,39356353.59848265
1066,0.0
2,6, 1, 6, 0,11, 0.00,60.00,Friday
9,37719309.61300652
871,37719309.61300652
1066,0.0
2,6, 1, 6, 0,12, 0.00,60.00,Friday
9,35518766.774592008
871,35518766.774592008
1066,0.0
2,6, 1, 6, 0,13, 0.00,60.00,Friday
9,37394612.98606415
871,37394612.98606414
1066,0.0
2,6, 1, 6, 0,14, 0.00,60.00,Friday
9,32821805.800518209
871,32821805.800518209
1066,0.0
2,6, 1, 6, 0,15, 0.00,60.00,Friday
9,32347723.744611276
871,32347723.74461127
1066,0.0
2,6, 1, 6, 0,16, 0.00,60.00,Friday
9,32124159.503925776
871,32124159.503925776
1066,0.0
2,6, 1, 6, 0,17, 0.00,60.00,Friday
9,35263452.23927412
871,35263452.23927412
1066,0.0
2,6, 1, 6, 0,18, 0.00,60.00,Friday
9,37100966.31781357
871,37100966.317813578
1066,0.0
2,6, 1, 6, 0,19, 0.00,60.00,Friday
9,32596185.733689544
871,32596185.73368954
1066,0.0
2,6, 1, 6, 0,20, 0.00,60.00,Friday
9,13931418.059538959
871,13931418.059538955
1066,0.0
2,6, 1, 6, 0,21, 0.00,60.00,Friday
9,12669894.910823152
871,12669894.910823152
1066,0.0
2,6, 1, 6, 0,22, 0.00,60.00,Friday
9,12669894.910823152
871,12669894.910823152
1066,0.0
2,6, 1, 6, 0,23, 0.00,60.00,Friday
9,11534524.076916658
871,11534524.076916658
1066,0.0
2,6, 1, 6, 0,24, 0.00,60.00,Friday
9,11205881.415921547
871,11205881.415921547
1066,0.0
2,7, 1, 7, 0, 1, 0.00,60.00,Saturday
9,10093157.415921547
871,10093157.415921547
1066,0.0
2,7, 1, 7, 0, 2, 0.00,60.00,Saturday
9,10093157.415921547
871,10093157.415921547
1066,0.0
2,7, 1, 7, 0, 3, 0.00,60.00,Saturday
9,10093157.415921547
871,10093157.415921547
1066,0.0
2,7, 1, 7, 0, 4, 0.00,60.00,Saturday
9,10093157.415921547
871,10093157.415921547
1066,0.0
2,7, 1, 7, 0, 5, 0.00,60.00,Saturday
9,10093157.415921547
871,10093157.415921547
1066,0.0
2,7, 1, 7, 0, 6, 0.00,60.00,Saturday
9,10093157.415921547
871,10093157.415921547
1066,0.0
2,7, 1, 7, 0, 7, 0.00,60.00,Saturday
9,11205881.415921547
871,11205881.415921547
1066,0.0
2,7, 1, 7, 0, 8, 0.00,60.00,Saturday
9,11205881.415921547
871,11205881.415921547
1066,0.0
2,7, 1, 7, 0, 9, 0.00,60.00,Saturday
9,7825114.441311181
871,7825114.441311181
1066,0.0
2,7, 1, 7, 0,10, 0.00,60.00,Saturday
9,7606440.795774006
871,7606440.795774006
1066,0.0
2,7, 1, 7, 0,11, 0.00,60.00,Saturday
9,7557737.310532268
871,7557737.310532267
1066,0.0
2,7, 1, 7, 0,12, 0.00,60.00,Saturday
9,7524114.655724569
871,7524114.655724569
1066,0.0
2,7, 1, 7, 0,13, 0.00,60.00,Saturday
9,7563254.921628924
871,7563254.921628923
1066,0.0
2,7, 1, 7, 0,14, 0.00,60.00,Saturday
9,7574356.930239567
871,7574356.930239567
1066,0.0
2,7, 1, 7, 0,15, 0.00,60.00,Saturday
9,7625818.89215773
871,7625818.89215773
1066,0.0
2,7, 1, 7, 0,16, 0.00,60.00,Saturday
9,7645628.926839717
871,7645628.926839717
1066,0.0
2,7, 1, 7, 0,17, 0.00,60.00,Saturday
9,9794710.61030598
871,9794710.61030598
1066,0.0
2,7, 1, 7, 0,18, 0.00,60.00,Saturday
9,11205881.415921547
871,11205881.415921547
1066,0.0
2,7, 1, 7, 0,19, 0.00,60.00,Saturday
9,11205881.415921547
871,11205881.415921547
1066,0.0
2,7, 1, 7, 0,20, 0.00,60.00,Saturday
9,11205881.415921547
871,11205881.415921547
1066,0.0
2,7, 1, 7, 0,21, 0.00,60.00,Saturday
9,11205881.415921547
871,11205881.415921547
1066,0.0
2,7, 1, 7, 0,22, 0.00,60.00,Saturday
9,11205881.415921547
871,11205881.415921547
1066,0.0
2,7, 1, 7, 0,23, 0.00,60.00,Saturday
9,11205881.415921547
871,11205881.415921547
1066,0.0
2,7, 1, 7, 0,24, 0.00,60.00,Saturday
9,11205881.415921547
871,11205881.415921547
1066,0.0
2,8, 1, 8, 0, 1, 0.00,60.00,Sunday
9,10093157.415921547
871,10093157.415921547
1066,0.0
2,8, 1, 8, 0, 2, 0.00,60.00,Sunday
9,10093157.415921547
871,10093157.415921547
1066,0.0
2,8, 1, 8, 0, 3, 0.00,60.00,Sunday
9,10093157.415921547
871,10093157.415921547
1066,0.0
2,8, 1, 8, 0, 4, 0.00,60.00,Sunday
9,10093157.415921547
871,10093157.415921547
1066,0.0
2,8, 1, 8, 0, 5, 0.00,60.00,Sunday
9,10093157.415921547
871,10093157.415921547
1066,0.0
2,8, 1, 8, 0, 6, 0.00,60.00,Sunday
9,10093157.415921547
871,10093157.415921547
1066,0.0
2,8, 1, 8, 0, 7, 0.00,60.00,Sunday
9,11205881.415921547
871,11205881.415921547
1066,0.0
2,8, 1, 8, 0, 8, 0.00,60.00,Sunday
9,11205881.415921547
871,11205881.415921547
1066,0.0
2,8, 1, 8, 0, 9, 0.00,60.00,Sunday
9,7879187.702577653
871,7879187.702577653
1066,0.0
2,8, 1, 8, 0,10, 0.00,60.00,Sunday
9,7641910.338814916
871,7641910.338814916
1066,0.0
2,8, 1, 8, 0,11, 0.00,60.00,Sunday
9,7579369.753144132
871,7579369.753144132
1066,0.0
2,8, 1, 8, 0,12, 0.00,60.00,Sunday
9,7588693.106498653
871,7588693.106498651
1066,0.0
2,8, 1, 8, 0,13, 0.00,60.00,Sunday
9,7533263.239450828
871,7533263.239450828
1066,0.0
2,8, 1, 8, 0,14, 0.00,60.00,Sunday
9,6671060.419916435
871,6671060.419916435
1066,0.0
2,8, 1, 8, 0,15, 0.00,60.00,Sunday
9,6722930.899527896
871,6722930.899527895
1066,0.0
2,8, 1, 8, 0,16, 0.00,60.00,Sunday
9,6745084.589814775
871,6745084.589814775
1066,0.0
2,8, 1, 8, 0,17, 0.00,60.00,Sunday
9,9793520.457824385
871,9793520.457824385
1066,0.0
2,8, 1, 8, 0,18, 0.00,60.00,Sunday
9,11205881.415921547
871,11205881.415921547
1066,0.0
2,8, 1, 8, 0,19, 0.00,60.00,Sunday
9,11205881.415921547
871,11205881.415921547
1066,0.0
2,8, 1, 8, 0,20, 0.00,60.00,Sunday
9,11205881.415921547
871,11205881.415921547
1066,0.0
2,8, 1, 8, 0,21, 0.00,60.00,Sunday
9,11205881.415921547
871,11205881.415921547
1066,0.0
2,8, 1, 8, 0,22, 0.00,60.00,Sunday
9,11205881.415921547
871,11205881.415921547
1066,0.0
2,8, 1, 8, 0,23, 0.00,60.00,Sunday
9,11205881.415921547
871,11205881.415921547
1066,0.0
2,8, 1, 8, 0,24, 0.00,60.00,Sunday
9,11205881.415921547
871,11205881.415921547
1066,0.0
2,9, 1, 9, 0, 1, 0.00,60.00,Monday
9,13158423.644994015
871,13158423.644994013
1066,0.0
2,9, 1, 9, 0, 2, 0.00,60.00,Monday
9,13158423.644994015
871,13158423.644994013
1066,0.0
2,9, 1, 9, 0, 3, 0.00,60.00,Monday
9,13158423.644994015
871,13158423.644994013
1066,0.0
2,9, 1, 9, 0, 4, 0.00,60.00,Monday
9,13158423.644994015
871,13158423.644994013
1066,0.0
2,9, 1, 9, 0, 5, 0.00,60.00,Monday
9,13158423.644994015
871,13158423.644994013
1066,0.0
2,9, 1, 9, 0, 6, 0.00,60.00,Monday
9,13970526.588477327
871,13970526.588477327
1066,0.0
2,9, 1, 9, 0, 7, 0.00,60.00,Monday
9,36506472.61624379
871,36506472.61624379
1066,18297767.567626697
2,9, 1, 9, 0, 8, 0.00,60.00,Monday
9,43864540.510826338
871,43864540.51082634
1066,17123389.672445496
2,9, 1, 9, 0, 9, 0.00,60.00,Monday
9,46005233.8846751
871,46005233.88467511
1066,3540178.523045188
2,9, 1, 9, 0,10, 0.00,60.00,Monday
9,41235355.94159228
871,41235355.94159228
1066,829823.5519184541
2,9, 1, 9, 0,11, 0.00,60.00,Monday
9,36643703.08367064
871,36643703.08367064
1066,0.0
2,9, 1, 9, 0,12, 0.00,60.00,Monday
9,33974560.482555549
871,33974560.48255555
1066,0.0
2,9, 1, 9, 0,13, 0.00,60.00,Monday
9,32517919.82012848
871,32517919.82012848
1066,0.0
2,9, 1, 9, 0,14, 0.00,60.00,Monday
9,32506611.05178805
871,32506611.05178805
1066,0.0
2,9, 1, 9, 0,15, 0.00,60.00,Monday
9,32692754.127545567
871,32692754.12754557
1066,0.0
2,9, 1, 9, 0,16, 0.00,60.00,Monday
9,33093861.511648045
871,33093861.511648045
1066,0.0
2,9, 1, 9, 0,17, 0.00,60.00,Monday
9,35588704.30118614
871,35588704.301186148
1066,0.0
2,9, 1, 9, 0,18, 0.00,60.00,Monday
9,32216937.074427144
871,32216937.074427148
1066,0.0
2,9, 1, 9, 0,19, 0.00,60.00,Monday
9,26850042.575433975
871,26850042.575433975
1066,0.0
2,9, 1, 9, 0,20, 0.00,60.00,Monday
9,13031418.059538959
871,13031418.059538955
1066,0.0
2,9, 1, 9, 0,21, 0.00,60.00,Monday
9,11769894.910823154
871,11769894.910823152
1066,0.0
2,9, 1, 9, 0,22, 0.00,60.00,Monday
9,11769894.910823154
871,11769894.910823152
1066,0.0
2,9, 1, 9, 0,23, 0.00,60.00,Monday
9,10634524.076916654
871,10634524.076916654
1066,0.0
2,9, 1, 9, 0,24, 0.00,60.00,Monday
9,10305881.415921547
871,10305881.415921547
1066,0.0
2,10, 1,10, 0, 1, 0.00,60.00,Tuesday
9,12258423.644994013
871,12258423.644994013
1066,0.0
2,10, 1,10, 0, 2, 0.00,60.00,Tuesday
9,12258423.644994013
871,12258423.644994013
1066,0.0
2,10, 1,10, 0, 3, 0.00,60.00,Tuesday
9,12258423.644994013
871,12258423.644994013
1066,0.0
2,10, 1,10, 0, 4, 0.00,60.00,Tuesday
9,12258423.644994013
871,12258423.644994013
1066,0.0
2,10, 1,10, 0, 5, 0.00,60.00,Tuesday
9,12258423.644994013
871,12258423.644994013
1066,0.0
2,10, 1,10, 0, 6, 0.00,60.00,Tuesday
9,13070526.588477327
871,13070526.588477323
1066,0.0
2,10, 1,10, 0, 7, 0.00,60.00,Tuesday
9,29002845.692199876
871,29002845.692199876
1066,0.0
2,10, 1,10, 0, 8, 0.00,60.00,Tuesday
9,34094922.3284618
871,34094922.3284618
1066,0.0
2,10, 1,10, 0, 9, 0.00,60.00,Tuesday
9,34850143.22248013
871,34850143.22248013
1066,0.0
2,10, 1,10, 0,10, 0.00,60.00,Tuesday
9,32425934.75853127
871,32425934.75853127
1066,0.0
2,10, 1,10, 0,11, 0.00,60.00,Tuesday
9,31957064.624190108
871,31957064.624190116
1066,0.0
2,10, 1,10, 0,12, 0.00,60.00,Tuesday
9,31453437.55732232
871,31453437.55732232
1066,0.0
2,10, 1,10, 0,13, 0.00,60.00,Tuesday
9,30897838.10592591
871,30897838.10592591
1066,0.0
2,10, 1,10, 0,14, 0.00,60.00,Tuesday
9,31207061.900968039
871,31207061.900968039
1066,0.0
2,10, 1,10, 0,15, 0.00,60.00,Tuesday
9,30913436.777841715
871,30913436.777841715
1066,0.0
2,10, 1,10, 0,16, 0.00,60.00,Tuesday
9,31120721.936853883
871,31120721.936853883
1066,0.0
2,10, 1,10, 0,17, 0.00,60.00,Tuesday
9,32921146.28471594
871,32921146.28471594
1066,0.0
2,10, 1,10, 0,18, 0.00,60.00,Tuesday
9,27976470.658634277
871,27976470.658634277
1066,0.0
2,10, 1,10, 0,19, 0.00,60.00,Tuesday
9,22690960.07871716
871,22690960.07871716
1066,0.0
2,10, 1,10, 0,20, 0.00,60.00,Tuesday
9,13031418.059538959
871,13031418.059538955
1066,0.0
2,10, 1,10, 0,21, 0.00,60.00,Tuesday
9,11769894.910823154
871,11769894.910823152
1066,0.0
2,10, 1,10, 0,22, 0.00,60.00,Tuesday
9,11769894.910823154
871,11769894.910823152
1066,0.0
2,10, 1,10, 0,23, 0.00,60.00,Tuesday
9,10634524.076916654
871,10634524.076916654
1066,0.0
2,10, 1,10, 0,24, 0.00,60.00,Tuesday
9,10305881.415921547
871,10305881.415921547
1066,0.0
2,11, 1,11, 0, 1, 0.00,60.00,Wednesday
9,12258423.644994013
871,12258423.644994013
1066,0.0
2,11, 1,11, 0, 2, 0.00,60.00,Wednesday
9,12258423.644994013
871,12258423.644994013
1066,0.0
2,11, 1,11, 0, 3, 0.00,60.00,Wednesday
9,12258423.644994013
871,12258423.644994013
1066,0.0
2,11, 1,11, 0, 4, 0.00,60.00,Wednesday
9,12258423.644994013
871,12258423.644994013
1066,0.0
2,11, 1,11, 0, 5, 0.00,60.00,Wednesday
9,12258423.644994013
871,12258423.644994013
1066,0.0
2,11, 1,11, 0, 6, 0.00,60.00,Wednesday
9,13070526.588477327
871,13070526.588477323
1066,0.0
2,11, 1,11, 0, 7, 0.00,60.00,Wednesday
9,24340100.89296789
871,24340100.892967885
1066,0.0
2,11, 1,11, 0, 8, 0.00,60.00,Wednesday
9,28205857.794372798
871,28205857.794372795
1066,0.0
2,11, 1,11, 0, 9, 0.00,60.00,Wednesday
9,31908699.105658514
871,31908699.10565852
1066,0.0
2,11, 1,11, 0,10, 0.00,60.00,Wednesday
9,30203173.87982648
871,30203173.879826469
1066,0.0
2,11, 1,11, 0,11, 0.00,60.00,Wednesday
9,30228925.513291524
871,30228925.513291528
1066,0.0
2,11, 1,11, 0,12, 0.00,60.00,Wednesday
9,29706965.938735963
871,29706965.938735963
1066,0.0
2,11, 1,11, 0,13, 0.00,60.00,Wednesday
9,27894557.25630326
871,27894557.25630326
1066,0.0
2,11, 1,11, 0,14, 0.00,60.00,Wednesday
9,29542247.90910821
871,29542247.909108219
1066,0.0
2,11, 1,11, 0,15, 0.00,60.00,Wednesday
9,29858121.760463217
871,29858121.760463217
1066,0.0
2,11, 1,11, 0,16, 0.00,60.00,Wednesday
9,30927707.551642024
871,30927707.55164202
1066,0.0
2,11, 1,11, 0,17, 0.00,60.00,Wednesday
9,32708464.497398925
871,32708464.497398925
1066,0.0
2,11, 1,11, 0,18, 0.00,60.00,Wednesday
9,24937050.958620624
871,24937050.958620624
1066,0.0
2,11, 1,11, 0,19, 0.00,60.00,Wednesday
9,19614991.388621466
871,19614991.388621458
1066,0.0
2,11, 1,11, 0,20, 0.00,60.00,Wednesday
9,13031418.059538959
871,13031418.059538955
1066,0.0
2,11, 1,11, 0,21, 0.00,60.00,Wednesday
9,11769894.910823154
871,11769894.910823152
1066,0.0
2,11, 1,11, 0,22, 0.00,60.00,Wednesday
9,11769894.910823154
871,11769894.910823152
1066,0.0
2,11, 1,11, 0,23, 0.00,60.00,Wednesday
9,10634524.076916654
871,10634524.076916654
1066,0.0
2,11, 1,11, 0,24, 0.00,60.00,Wednesday
9,10305881.415921547
871,10305881.415921547
1066,0.0
2,12, 1,12, 0, 1, 0.00,60.00,Thursday
9,12258423.644994013
871,12258423.644994013
1066,0.0
2,12, 1,12, 0, 2, 0.00,60.00,Thursday
9,12258423.644994013
871,12258423.644994013
1066,0.0
2,12, 1,12, 0, 3, 0.00,60.00,Thursday
9,12258423.644994013
871,12258423.644994013
1066,0.0
2,12, 1,12, 0, 4, 0.00,60.00,Thursday
9,12258423.644994013
871,12258423.644994013
1066,0.0
2,12, 1,12, 0, 5, 0.00,60.00,Thursday
9,12258423.644994013
871,12258423.644994013
1066,0.0
2,12, 1,12, 0, 6, 0.00,60.00,Thursday
9,13070526.588477327
871,13070526.588477323
1066,0.0
2,12, 1,12, 0, 7, 0.00,60.00,Thursday
9,23664447.938256969
871,23664447.938256965
1066,0.0
2,12, 1,12, 0, 8, 0.00,60.00,Thursday
9,28392858.193831866
871,28392858.193831859
1066,0.0
2,12, 1,12, 0, 9, 0.00,60.00,Thursday
9,32201735.28057423
871,32201735.28057424
1066,0.0
2,12, 1,12, 0,10, 0.00,60.00,Thursday
9,31517045.552709089
871,31517045.552709089
1066,0.0
2,12, 1,12, 0,11, 0.00,60.00,Thursday
9,30866417.562100665
871,30866417.562100665
1066,0.0
2,12, 1,12, 0,12, 0.00,60.00,Thursday
9,30522996.354717785
871,30522996.354717789
1066,0.0
2,12, 1,12, 0,13, 0.00,60.00,Thursday
9,29543700.44390771
871,29543700.44390771
1066,0.0
2,12, 1,12, 0,14, 0.00,60.00,Thursday
9,29690696.045658165
871,29690696.045658169
1066,0.0
2,12, 1,12, 0,15, 0.00,60.00,Thursday
9,30706886.245889568
871,30706886.245889576
1066,0.0
2,12, 1,12, 0,16, 0.00,60.00,Thursday
9,30295919.855414105
871,30295919.855414105
1066,0.0
2,12, 1,12, 0,17, 0.00,60.00,Thursday
9,32681710.47204373
871,32681710.47204373
1066,0.0
2,12, 1,12, 0,18, 0.00,60.00,Thursday
9,27977059.232051344
871,27977059.232051344
1066,0.0
2,12, 1,12, 0,19, 0.00,60.00,Thursday
9,22938230.620036317
871,22938230.62003631
1066,0.0
2,12, 1,12, 0,20, 0.00,60.00,Thursday
9,13031418.059538959
871,13031418.059538955
1066,0.0
2,12, 1,12, 0,21, 0.00,60.00,Thursday
9,11769894.910823154
871,11769894.910823152
1066,0.0
2,12, 1,12, 0,22, 0.00,60.00,Thursday
9,11769894.910823154
871,11769894.910823152
1066,0.0
2,12, 1,12, 0,23, 0.00,60.00,Thursday
9,10634524.076916654
871,10634524.076916654
1066,0.0
2,12, 1,12, 0,24, 0.00,60.00,Thursday
9,10305881.415921547
871,10305881.415921547
1066,0.0
2,13, 1,13, 0, 1, 0.00,60.00,Friday
9,13158423.644994015
871,13158423.644994013
1066,0.0
2,13, 1,13, 0, 2, 0.00,60.00,Friday
9,13158423.644994015
871,13158423.644994013
1066,0.0
2,13, 1,13, 0, 3, 0.00,60.00,Friday
9,13158423.644994015
871,13158423.644994013
1066,0.0
2,13, 1,13, 0, 4, 0.00,60.00,Friday
9,13158423.644994015
871,13158423.644994013
1066,0.0
2,13, 1,13, 0, 5, 0.00,60.00,Friday
9,13158423.644994015
871,13158423.644994013
1066,0.0
2,13, 1,13, 0, 6, 0.00,60.00,Friday
9,13970526.588477327
871,13970526.588477327
1066,0.0
2,13, 1,13, 0, 7, 0.00,60.00,Friday
9,27347906.88348655
871,27347906.88348655
1066,2461770.034292211
2,13, 1,13, 0, 8, 0.00,60.00,Friday
9,32733856.252032047
871,32733856.252032039
1066,0.0
2,13, 1,13, 0, 9, 0.00,60.00,Friday
9,35533487.38349719
871,35533487.38349719
1066,0.0
2,13, 1,13, 0,10, 0.00,60.00,Friday
9,33660364.01356149
871,33660364.01356149
1066,0.0
2,13, 1,13, 0,11, 0.00,60.00,Friday
9,33390457.99961899
871,33390457.99961899
1066,0.0
2,13, 1,13, 0,12, 0.00,60.00,Friday
9,32395079.369396345
871,32395079.369396349
1066,0.0
2,13, 1,13, 0,13, 0.00,60.00,Friday
9,32392923.156522488
871,32392923.15652249
1066,0.0
2,13, 1,13, 0,14, 0.00,60.00,Friday
9,30966278.11008778
871,30966278.110087776
1066,0.0
2,13, 1,13, 0,15, 0.00,60.00,Friday
9,31859259.65514866
871,31859259.655148657
1066,0.0
2,13, 1,13, 0,16, 0.00,60.00,Friday
9,32894605.397073337
871,32894605.397073345
1066,0.0
2,13, 1,13, 0,17, 0.00,60.00,Friday
9,35131430.44396154
871,35131430.443961549
1066,0.0
2,13, 1,13, 0,18, 0.00,60.00,Friday
9,35223568.98116545
871,35223568.981165457
1066,0.0
2,13, 1,13, 0,19, 0.00,60.00,Friday
9,31503314.07618422
871,31503314.07618422
1066,0.0
2,13, 1,13, 0,20, 0.00,60.00,Friday
9,13931418.059538959
871,13931418.059538955
1066,0.0
2,13, 1,13, 0,21, 0.00,60.00,Friday
9,12669894.910823152
871,12669894.910823152
1066,0.0
2,13, 1,13, 0,22, 0.00,60.00,Friday
9,12669894.910823152
871,12669894.910823152
1066,0.0
2,13, 1,13, 0,23, 0.00,60.00,Friday
9,11534524.076916658
871,11534524.076916658
1066,0.0
2,13, 1,13, 0,24, 0.00,60.00,Friday
9,11205881.415921547
871,11205881.415921547
1066,0.0
2,14, 1,14, 0, 1, 0.00,60.00,Saturday
9,10093157.415921547
871,10093157.415921547
1066,0.0
2,14, 1,14, 0, 2, 0.00,60.00,Saturday
9,10093157.415921547
871,10093157.415921547
1066,0.0
2,14, 1,14, 0, 3, 0.00,60.00,Saturday
9,10093157.415921547
871,10093157.415921547
1066,0.0
2,14, 1,14, 0, 4, 0.00,60.00,Saturday
9,10093157.415921547
871,10093157.415921547
1066,0.0
2,14, 1,14, 0, 5, 0.00,60.00,Saturday
9,10093157.415921547
871,10093157.415921547
1066,0.0
2,14, 1,14, 0, 6, 0.00,60.00,Saturday
9,10093157.415921547
871,10093157.415921547
1066,0.0
2,14, 1,14, 0, 7, 0.00,60.00,Saturday
9,11205881.415921547
871,11205881.415921547
1066,0.0
2,14, 1,14, 0, 8, 0.00,60.00,Saturday
9,10932281.415921547
871,10932281.415921547
1066,0.0
2,14, 1,14, 0, 9, 0.00,60.00,Saturday
9,7871754.225939823
871,7871754.225939823
1066,0.0
2,14, 1,14, 0,10, 0.00,60.00,Saturday
9,7583118.982657093
871,7583118.982657092
1066,0.0
2,14, 1,14, 0,11, 0.00,60.00,Saturday
9,7555495.133359088
871,7555495.133359087
1066,0.0
2,14, 1,14, 0,12, 0.00,60.00,Saturday
9,7523791.747996243
871,7523791.747996243
1066,0.0
2,14, 1,14, 0,13, 0.00,60.00,Saturday
9,7017088.42696022
871,7017088.42696022
1066,0.0
2,14, 1,14, 0,14, 0.00,60.00,Saturday
9,6639486.988208505
871,6639486.988208505
1066,0.0
2,14, 1,14, 0,15, 0.00,60.00,Saturday
9,6656344.20118725
871,6656344.20118725
1066,0.0
2,14, 1,14, 0,16, 0.00,60.00,Saturday